 Entering Gaussian System, Link 0=g09
 Initial command:
 /home/gaussian/g09/l1.exe /state/partition1/Geom-Opt/Gau-222167.inp -scrdir=/state/partition1/Geom-Opt/
 Entering Link 1 = /home/gaussian/g09/l1.exe PID=    222168.
  
 Copyright (c) 1988,1990,1992,1993,1995,1998,2003,2009,2011,
            Gaussian, Inc.  All Rights Reserved.
  
 This is part of the Gaussian(R) 09 program.  It is based on
 the Gaussian(R) 03 system (copyright 2003, Gaussian, Inc.),
 the Gaussian(R) 98 system (copyright 1998, Gaussian, Inc.),
 the Gaussian(R) 94 system (copyright 1995, Gaussian, Inc.),
 the Gaussian 92(TM) system (copyright 1992, Gaussian, Inc.),
 the Gaussian 90(TM) system (copyright 1990, Gaussian, Inc.),
 the Gaussian 88(TM) system (copyright 1988, Gaussian, Inc.),
 the Gaussian 86(TM) system (copyright 1986, Carnegie Mellon
 University), and the Gaussian 82(TM) system (copyright 1983,
 Carnegie Mellon University). Gaussian is a federally registered
 trademark of Gaussian, Inc.
  
 This software contains proprietary and confidential information,
 including trade secrets, belonging to Gaussian, Inc.
  
 This software is provided under written license and may be
 used, copied, transmitted, or stored only in accord with that
 written license.
  
 The following legend is applicable only to US Government
 contracts under FAR:
  
                    RESTRICTED RIGHTS LEGEND
  
 Use, reproduction and disclosure by the US Government is
 subject to restrictions as set forth in subparagraphs (a)
 and (c) of the Commercial Computer Software - Restricted
 Rights clause in FAR 52.227-19.
  
 Gaussian, Inc.
 340 Quinnipiac St., Bldg. 40, Wallingford CT 06492
  
  
 ---------------------------------------------------------------
 Warning -- This program may not be used in any manner that
 competes with the business of Gaussian, Inc. or will provide
 assistance to any competitor of Gaussian, Inc.  The licensee
 of this program is prohibited from giving any competitor of
 Gaussian, Inc. access to this program.  By using this program,
 the user acknowledges that Gaussian, Inc. is engaged in the
 business of creating and licensing software in the field of
 computational chemistry and represents and warrants to the
 licensee that it is not a competitor of Gaussian, Inc. and that
 it will not use this program in any manner prohibited above.
 ---------------------------------------------------------------
  

 Cite this work as:
 Gaussian 09, Revision C.01,
 M. J. Frisch, G. W. Trucks, H. B. Schlegel, G. E. Scuseria, 
 M. A. Robb, J. R. Cheeseman, G. Scalmani, V. Barone, B. Mennucci, 
 G. A. Petersson, H. Nakatsuji, M. Caricato, X. Li, H. P. Hratchian, 
 A. F. Izmaylov, J. Bloino, G. Zheng, J. L. Sonnenberg, M. Hada, 
 M. Ehara, K. Toyota, R. Fukuda, J. Hasegawa, M. Ishida, T. Nakajima, 
 Y. Honda, O. Kitao, H. Nakai, T. Vreven, J. A. Montgomery, Jr., 
 J. E. Peralta, F. Ogliaro, M. Bearpark, J. J. Heyd, E. Brothers, 
 K. N. Kudin, V. N. Staroverov, T. Keith, R. Kobayashi, J. Normand, 
 K. Raghavachari, A. Rendell, J. C. Burant, S. S. Iyengar, J. Tomasi, 
 M. Cossi, N. Rega, J. M. Millam, M. Klene, J. E. Knox, J. B. Cross, 
 V. Bakken, C. Adamo, J. Jaramillo, R. Gomperts, R. E. Stratmann, 
 O. Yazyev, A. J. Austin, R. Cammi, C. Pomelli, J. W. Ochterski, 
 R. L. Martin, K. Morokuma, V. G. Zakrzewski, G. A. Voth, 
 P. Salvador, J. J. Dannenberg, S. Dapprich, A. D. Daniels, 
 O. Farkas, J. B. Foresman, J. V. Ortiz, J. Cioslowski, 
 and D. J. Fox, Gaussian, Inc., Wallingford CT, 2010.
 
 ******************************************
 Gaussian 09:  EM64L-G09RevC.01 23-Sep-2011
                 2-Apr-2023 
 ******************************************
 %Chk=PLP_ideal_opt.chk
 %Mem=64GB
 %NProc=64
 Will use up to   64 processors via shared memory.
 ------------------------
 #B3LYP/6-311++G(d,p) Opt
 ------------------------
 1/14=-1,18=20,19=15,26=3,38=1/1,3;
 2/9=110,12=2,17=6,18=5,40=1/2;
 3/5=4,6=6,7=1111,11=2,16=1,25=1,30=1,71=1,74=-5/1,2,3;
 4//1;
 5/5=2,38=5/2;
 6/7=2,8=2,9=2,10=2,28=1/1;
 7//1,2,3,16;
 1/14=-1,18=20,19=15/3(2);
 2/9=110/2;
 99//99;
 2/9=110/2;
 3/5=4,6=6,7=1111,11=2,16=1,25=1,30=1,71=1,74=-5/1,2,3;
 4/5=5,16=3/1;
 5/5=2,38=5/2;
 7//1,2,3,16;
 1/14=-1,18=20,19=15/3(-5);
 2/9=110/2;
 6/7=2,8=2,9=2,10=2,19=2,28=1/1;
 99/9=1/99;
 -------
 PLP opt
 -------
 Charge = -2 Multiplicity = 1
 Symbolic Z-Matrix:
 N                     2.053    -0.012     1.991 
 C                     1.286    -0.008     3.06 
 C                     1.916    -0.021     4.429 
 C                    -0.098     0.002     2.942 
 O                    -0.884     0.007     4.047 
 C                    -0.668     0.02      1.657 
 C                    -2.129     0.039     1.476 
 O                    -2.859     0.043     2.444 
 C                     0.195     0.015     0.553 
 C                     1.557    -0.001     0.769 
 C                    -0.356     0.027    -0.849 
 O                     0.722     0.018    -1.785 
 P                     0.064     0.032    -3.254 
 O                    -0.759     1.251    -3.414 
 O                     1.229     0.023    -4.365 
 O                    -0.863    -1.27     -3.439 
 H                     2.08      1.003     4.763 
 H                     1.254    -0.53      5.129 
 H                     2.871    -0.545     4.384 
 H                    -1.061    -0.917     4.268 
 H                    -2.55      0.048     0.482 
 H                     2.229    -0.005    -0.076 
 H                    -0.978    -0.854    -1.002 
 H                    -0.957     0.925    -0.995 
 

 GradGradGradGradGradGradGradGradGradGradGradGradGradGradGradGradGradGrad
 Berny optimization.
 Initialization pass.
                           ----------------------------
                           !    Initial Parameters    !
                           ! (Angstroms and Degrees)  !
 --------------------------                            --------------------------
 ! Name  Definition              Value          Derivative Info.                !
 --------------------------------------------------------------------------------
 ! R1    R(1,2)                  1.3157         estimate D2E/DX2                !
 ! R2    R(1,10)                 1.3189         estimate D2E/DX2                !
 ! R3    R(2,3)                  1.5071         estimate D2E/DX2                !
 ! R4    R(2,4)                  1.3891         estimate D2E/DX2                !
 ! R5    R(3,17)                 1.0895         estimate D2E/DX2                !
 ! R6    R(3,18)                 1.0896         estimate D2E/DX2                !
 ! R7    R(3,19)                 1.0902         estimate D2E/DX2                !
 ! R8    R(4,5)                  1.356          estimate D2E/DX2                !
 ! R9    R(4,6)                  1.4059         estimate D2E/DX2                !
 ! R10   R(5,20)                 0.9664         estimate D2E/DX2                !
 ! R11   R(6,7)                  1.4723         estimate D2E/DX2                !
 ! R12   R(6,9)                  1.4013         estimate D2E/DX2                !
 ! R13   R(7,8)                  1.2124         estimate D2E/DX2                !
 ! R14   R(7,21)                 1.0795         estimate D2E/DX2                !
 ! R15   R(9,10)                 1.3791         estimate D2E/DX2                !
 ! R16   R(9,11)                 1.5064         estimate D2E/DX2                !
 ! R17   R(10,22)                1.0796         estimate D2E/DX2                !
 ! R18   R(11,12)                1.4277         estimate D2E/DX2                !
 ! R19   R(11,23)                1.0892         estimate D2E/DX2                !
 ! R20   R(11,24)                1.0904         estimate D2E/DX2                !
 ! R21   R(12,13)                1.6097         estimate D2E/DX2                !
 ! R22   R(13,14)                1.4795         estimate D2E/DX2                !
 ! R23   R(13,15)                1.6099         estimate D2E/DX2                !
 ! R24   R(13,16)                1.609          estimate D2E/DX2                !
 ! A1    A(2,1,10)             122.2458         estimate D2E/DX2                !
 ! A2    A(1,2,3)              119.6263         estimate D2E/DX2                !
 ! A3    A(1,2,4)              120.7863         estimate D2E/DX2                !
 ! A4    A(3,2,4)              119.5867         estimate D2E/DX2                !
 ! A5    A(2,3,17)             109.4688         estimate D2E/DX2                !
 ! A6    A(2,3,18)             109.4886         estimate D2E/DX2                !
 ! A7    A(2,3,19)             109.4405         estimate D2E/DX2                !
 ! A8    A(17,3,18)            109.4845         estimate D2E/DX2                !
 ! A9    A(17,3,19)            109.4223         estimate D2E/DX2                !
 ! A10   A(18,3,19)            109.5225         estimate D2E/DX2                !
 ! A11   A(2,4,5)              120.5521         estimate D2E/DX2                !
 ! A12   A(2,4,6)              118.797          estimate D2E/DX2                !
 ! A13   A(5,4,6)              120.648          estimate D2E/DX2                !
 ! A14   A(4,5,20)             106.797          estimate D2E/DX2                !
 ! A15   A(4,6,7)              120.9887         estimate D2E/DX2                !
 ! A16   A(4,6,9)              118.0584         estimate D2E/DX2                !
 ! A17   A(7,6,9)              120.9526         estimate D2E/DX2                !
 ! A18   A(6,7,8)              119.9587         estimate D2E/DX2                !
 ! A19   A(6,7,21)             120.0201         estimate D2E/DX2                !
 ! A20   A(8,7,21)             120.0211         estimate D2E/DX2                !
 ! A21   A(6,9,10)             119.0037         estimate D2E/DX2                !
 ! A22   A(6,9,11)             120.5267         estimate D2E/DX2                !
 ! A23   A(10,9,11)            120.4696         estimate D2E/DX2                !
 ! A24   A(1,10,9)             121.1063         estimate D2E/DX2                !
 ! A25   A(1,10,22)            119.4107         estimate D2E/DX2                !
 ! A26   A(9,10,22)            119.483          estimate D2E/DX2                !
 ! A27   A(9,11,12)            109.5075         estimate D2E/DX2                !
 ! A28   A(9,11,23)            109.46           estimate D2E/DX2                !
 ! A29   A(9,11,24)            109.4376         estimate D2E/DX2                !
 ! A30   A(12,11,23)           109.5109         estimate D2E/DX2                !
 ! A31   A(12,11,24)           109.4869         estimate D2E/DX2                !
 ! A32   A(23,11,24)           109.4243         estimate D2E/DX2                !
 ! A33   A(11,12,13)           106.8339         estimate D2E/DX2                !
 ! A34   A(12,13,14)           109.466          estimate D2E/DX2                !
 ! A35   A(12,13,15)           109.5081         estimate D2E/DX2                !
 ! A36   A(12,13,16)           109.4757         estimate D2E/DX2                !
 ! A37   A(14,13,15)           109.4224         estimate D2E/DX2                !
 ! A38   A(14,13,16)           109.5002         estimate D2E/DX2                !
 ! A39   A(15,13,16)           109.4549         estimate D2E/DX2                !
 ! D1    D(10,1,2,3)          -179.9927         estimate D2E/DX2                !
 ! D2    D(10,1,2,4)             0.2986         estimate D2E/DX2                !
 ! D3    D(2,1,10,9)            -0.0194         estimate D2E/DX2                !
 ! D4    D(2,1,10,22)         -179.9944         estimate D2E/DX2                !
 ! D5    D(1,2,3,17)            89.9597         estimate D2E/DX2                !
 ! D6    D(1,2,3,18)          -150.0148         estimate D2E/DX2                !
 ! D7    D(1,2,3,19)           -29.9602         estimate D2E/DX2                !
 ! D8    D(4,2,3,17)           -90.328          estimate D2E/DX2                !
 ! D9    D(4,2,3,18)            29.6974         estimate D2E/DX2                !
 ! D10   D(4,2,3,19)           149.7521         estimate D2E/DX2                !
 ! D11   D(1,2,4,5)           -179.9552         estimate D2E/DX2                !
 ! D12   D(1,2,4,6)             -0.5674         estimate D2E/DX2                !
 ! D13   D(3,2,4,5)              0.336          estimate D2E/DX2                !
 ! D14   D(3,2,4,6)            179.7238         estimate D2E/DX2                !
 ! D15   D(2,4,5,20)           -90.645          estimate D2E/DX2                !
 ! D16   D(6,4,5,20)            89.9787         estimate D2E/DX2                !
 ! D17   D(2,4,6,7)           -179.6455         estimate D2E/DX2                !
 ! D18   D(2,4,6,9)              0.5553         estimate D2E/DX2                !
 ! D19   D(5,4,6,7)             -0.2583         estimate D2E/DX2                !
 ! D20   D(5,4,6,9)            179.9424         estimate D2E/DX2                !
 ! D21   D(4,6,7,8)              0.2037         estimate D2E/DX2                !
 ! D22   D(4,6,7,21)          -179.7128         estimate D2E/DX2                !
 ! D23   D(9,6,7,8)            179.9971         estimate D2E/DX2                !
 ! D24   D(9,6,7,21)             0.0806         estimate D2E/DX2                !
 ! D25   D(4,6,9,10)            -0.2936         estimate D2E/DX2                !
 ! D26   D(4,6,9,11)           179.7101         estimate D2E/DX2                !
 ! D27   D(7,6,9,10)           179.9071         estimate D2E/DX2                !
 ! D28   D(7,6,9,11)            -0.0892         estimate D2E/DX2                !
 ! D29   D(6,9,10,1)             0.0223         estimate D2E/DX2                !
 ! D30   D(6,9,10,22)          179.9972         estimate D2E/DX2                !
 ! D31   D(11,9,10,1)         -179.9814         estimate D2E/DX2                !
 ! D32   D(11,9,10,22)          -0.0065         estimate D2E/DX2                !
 ! D33   D(6,9,11,12)         -179.9616         estimate D2E/DX2                !
 ! D34   D(6,9,11,23)          -59.8976         estimate D2E/DX2                !
 ! D35   D(6,9,11,24)           60.0175         estimate D2E/DX2                !
 ! D36   D(10,9,11,12)           0.0422         estimate D2E/DX2                !
 ! D37   D(10,9,11,23)         120.1062         estimate D2E/DX2                !
 ! D38   D(10,9,11,24)        -119.9787         estimate D2E/DX2                !
 ! D39   D(9,11,12,13)        -179.9822         estimate D2E/DX2                !
 ! D40   D(23,11,12,13)         59.9849         estimate D2E/DX2                !
 ! D41   D(24,11,12,13)        -59.9915         estimate D2E/DX2                !
 ! D42   D(11,12,13,14)         60.0287         estimate D2E/DX2                !
 ! D43   D(11,12,13,15)        179.9882         estimate D2E/DX2                !
 ! D44   D(11,12,13,16)        -60.0064         estimate D2E/DX2                !
 --------------------------------------------------------------------------------
 Trust Radius=3.00D-01 FncErr=1.00D-07 GrdErr=1.00D-06
 Number of steps in this run=    117 maximum allowed number of steps=    144.
 GradGradGradGradGradGradGradGradGradGradGradGradGradGradGradGradGradGrad

                          Input orientation:                          
 ---------------------------------------------------------------------
 Center     Atomic      Atomic             Coordinates (Angstroms)
 Number     Number       Type             X           Y           Z
 ---------------------------------------------------------------------
      1          7           0        2.053000   -0.012000    1.991000
      2          6           0        1.286000   -0.008000    3.060000
      3          6           0        1.916000   -0.021000    4.429000
      4          6           0       -0.098000    0.002000    2.942000
      5          8           0       -0.884000    0.007000    4.047000
      6          6           0       -0.668000    0.020000    1.657000
      7          6           0       -2.129000    0.039000    1.476000
      8          8           0       -2.859000    0.043000    2.444000
      9          6           0        0.195000    0.015000    0.553000
     10          6           0        1.557000   -0.001000    0.769000
     11          6           0       -0.356000    0.027000   -0.849000
     12          8           0        0.722000    0.018000   -1.785000
     13         15           0        0.064000    0.032000   -3.254000
     14          8           0       -0.759000    1.251000   -3.414000
     15          8           0        1.229000    0.023000   -4.365000
     16          8           0       -0.863000   -1.270000   -3.439000
     17          1           0        2.080000    1.003000    4.763000
     18          1           0        1.254000   -0.530000    5.129000
     19          1           0        2.871000   -0.545000    4.384000
     20          1           0       -1.061000   -0.917000    4.268000
     21          1           0       -2.550000    0.048000    0.482000
     22          1           0        2.229000   -0.005000   -0.076000
     23          1           0       -0.978000   -0.854000   -1.002000
     24          1           0       -0.957000    0.925000   -0.995000
 ---------------------------------------------------------------------
                    Distance matrix (angstroms):
                    1          2          3          4          5
     1  N    0.000000
     2  C    1.315700   0.000000
     3  C    2.441863   1.507060   0.000000
     4  C    2.351892   1.389057   2.503576   0.000000
     5  O    3.585173   2.383966   2.826076   1.356041   0.000000
     6  C    2.741609   2.405683   3.789818   1.405862   2.399776
     7  C    4.213900   3.764770   5.008576   2.505092   2.856762
     8  O    4.933151   4.190833   5.171552   2.805852   2.543920
     9  C    2.349625   2.734202   4.241051   2.406936   3.656821
    10  C    1.318871   2.306983   3.677619   2.731476   4.087032
    11  C    3.724299   4.240008   5.746440   3.799851   4.924429
    12  O    4.003828   4.877786   6.327792   4.797623   6.049098
    13  P    5.609642   6.431289   7.903240   6.198190   7.362332
    14  O    6.222261   6.905055   8.383690   6.511195   7.565030
    15  O    6.409285   7.425283   8.820904   7.426548   8.673337
    16  O    6.290510   6.960449   8.437314   6.551364   7.594167
    17  H    2.952107   2.133721   1.089508   3.010270   3.207798
    18  H    3.279294   2.134073   1.089644   2.625623   2.455634
    19  H    2.584504   2.133910   1.090241   3.345674   3.810288
    20  H    3.962417   2.791765   3.113080   1.878884   0.966409
    21  H    4.844408   4.622133   5.960598   3.473618   3.935284
    22  H    2.074491   3.274714   4.515889   3.810945   5.166241
    23  H    4.342116   4.726654   6.210063   4.130650   5.122749
    24  H    4.342150   4.727004   6.210380   4.133979   5.125409
                    6          7          8          9         10
     6  C    0.000000
     7  C    1.472292   0.000000
     8  O    2.328171   1.212411   0.000000
     9  C    1.401289   2.500696   3.592155   0.000000
    10  C    2.395748   3.753404   4.723200   1.379114   0.000000
    11  C    2.525357   2.923918   4.136316   1.506436   2.505649
    12  O    3.712071   4.331601   5.541537   2.396661   2.687099
    13  P    4.965268   5.213655   6.404003   3.809291   4.291231
    14  O    5.219069   5.220914   6.339198   4.263203   4.942555
    15  O    6.313723   6.737485   7.941953   5.025529   5.144523
    16  O    5.260356   5.241513   6.349620   4.325119   5.017372
    17  H    4.262045   5.426725   5.540134   4.717358   4.151335
    18  H    4.006416   5.011273   4.945131   4.728455   4.402414
    19  H    4.503363   5.813563   6.078013   4.706499   3.884682
    20  H    2.801739   3.138443   2.735211   4.030805   4.464973
    21  H    2.218858   1.079517   1.986190   2.746116   4.117307
    22  H    3.375874   4.626316   5.678067   2.129131   1.079641
    23  H    2.816071   2.874497   4.027119   2.132865   3.207846
    24  H    2.817029   2.874791   4.027685   2.133426   3.207704
                   11         12         13         14         15
    11  C    0.000000
    12  O    1.427677   0.000000
    13  P    2.441403   1.609696   0.000000
    14  O    2.870507   2.523349   1.479490   0.000000
    15  O    3.856747   2.629349   1.609853   2.522802   0.000000
    16  O    2.940639   2.628095   1.608962   2.523268   2.627887
    17  H    6.195258   6.759489   8.323424   8.659374   9.219815
    18  H    6.216014   6.956057   8.485672   8.955835   9.510125
    19  H    6.174545   6.556808   8.157893   8.786997   8.919854
    20  H    5.250890   6.379038   7.664640   7.987775   8.980890
    21  H    2.566250   3.980725   4.559709   4.453505   6.146127
    22  H    2.698292   2.278653   3.845553   4.652733   4.404124
    23  H    1.089245   2.064818   2.634818   3.208852   4.117007
    24  H    1.090377   2.065379   2.634952   2.448886   4.116928
                   16         17         18         19         20
    16  O    0.000000
    17  H    9.005586   0.000000
    18  H    8.856631   1.779416   0.000000
    19  H    8.698719   1.779221   1.780432   0.000000
    20  H    7.717620   3.714473   2.500063   3.951261   0.000000
    21  H    4.467363   6.377765   6.033167   6.705557   4.181165
    22  H    4.740301   4.945117   5.321492   4.538212   5.525050
    23  H    2.474924   6.784913   6.532684   6.627162   5.271030
    24  H    3.286335   6.510301   6.671501   6.763736   5.577002
                   21         22         23         24
    21  H    0.000000
    22  H    4.811758   0.000000
    23  H    2.342444   3.444289   0.000000
    24  H    2.342714   3.443843   1.779138   0.000000
 Stoichiometry    C8H8NO6P(2-)
 Framework group  C1[X(C8H8NO6P)]
 Deg. of freedom    66
 Full point group                 C1      NOp   1
 Largest Abelian subgroup         C1      NOp   1
 Largest concise Abelian subgroup C1      NOp   1
                         Standard orientation:                         
 ---------------------------------------------------------------------
 Center     Atomic      Atomic             Coordinates (Angstroms)
 Number     Number       Type             X           Y           Z
 ---------------------------------------------------------------------
      1          7           0        1.911656   -2.012920    0.007506
      2          6           0        2.967869   -1.228459   -0.002506
      3          6           0        4.347088   -1.835870    0.003662
      4          6           0        2.827087    0.153408   -0.012631
      5          8           0        3.918978    0.957457   -0.023841
      6          6           0        1.532816    0.702204   -0.024206
      7          6           0        1.327731    2.160020   -0.043043
      8          8           0        2.283568    2.905826   -0.052505
      9          6           0        0.443190   -0.178818   -0.012960
     10          6           0        0.681628   -1.537075    0.002640
     11          6           0       -0.967720    0.349061   -0.017912
     12          8           0       -1.885816   -0.744169   -0.003430
     13         15           0       -3.365485   -0.110406   -0.010089
     14          8           0       -3.545362    0.709093   -1.228676
     15          8           0       -4.457125   -1.293500    0.005356
     16          8           0       -3.558886    0.814240    1.292364
     17          1           0        4.678380   -1.994997   -1.021985
     18          1           0        5.038765   -1.162139    0.508633
     19          1           0        4.320531   -2.791153    0.528404
     20          1           0        4.141867    1.138641    0.898893
     21          1           0        0.326912    2.564623   -0.047062
     22          1           0       -0.152181   -2.222867    0.011427
     23          1           0       -1.126314    0.969012    0.863543
     24          1           0       -1.128271    0.947021   -0.915458
 ---------------------------------------------------------------------
 Rotational constants (GHZ):      1.0217539      0.2354470      0.1996614
 Standard basis: 6-311++G(d,p) (5D, 7F)
 There are   416 symmetry adapted basis functions of A   symmetry.
 Integral buffers will be    131072 words long.
 Raffenetti 2 integral format.
 Two-electron integral symmetry is turned on.
   416 basis functions,   662 primitive gaussians,   432 cartesian basis functions
    64 alpha electrons       64 beta electrons
       nuclear repulsion energy      1221.4400091514 Hartrees.
 NAtoms=   24 NActive=   24 NUniq=   24 SFac= 1.00D+00 NAtFMM=   60 NAOKFM=F Big=F
 One-electron integrals computed using PRISM.
 NBasis=   416 RedAO= T  NBF=   416
 NBsUse=   414 1.00D-06 NBFU=   414
 Harris functional with IExCor=  402 diagonalized for initial guess.
 ExpMin= 3.48D-02 ExpMax= 7.75D+04 ExpMxC= 2.65D+03 IAcc=3 IRadAn=         5 AccDes= 0.00D+00
 HarFok:  IExCor=  402 AccDes= 0.00D+00 IRadAn=         5 IDoV= 1
 ScaDFX=  1.000000  1.000000  1.000000  1.000000
 FoFCou: FMM=F IPFlag=           0 FMFlag=      100000 FMFlg1=           0
         NFxFlg=           0 DoJE=T BraDBF=F KetDBF=T FulRan=T
         Omega=  0.000000  0.000000  1.000000  0.000000  0.000000 ICntrl=     500 IOpCl=  0
         NMat0=    1 NMatS0=    1 NMatT0=    0 NMatD0=    1 NMtDS0=    0 NMtDT0=    0
         I1Cent=           4 NGrid=           0.
 Petite list used in FoFCou.
 Initial guess orbital symmetries:
       Occupied  (A) (A) (A) (A) (A) (A) (A) (A) (A) (A) (A) (A)
                 (A) (A) (A) (A) (A) (A) (A) (A) (A) (A) (A) (A)
                 (A) (A) (A) (A) (A) (A) (A) (A) (A) (A) (A) (A)
                 (A) (A) (A) (A) (A) (A) (A) (A) (A) (A) (A) (A)
                 (A) (A) (A) (A) (A) (A) (A) (A) (A) (A) (A) (A)
                 (A) (A) (A) (A)
       Virtual   (A) (A) (A) (A) (A) (A) (A) (A) (A) (A) (A) (A)
                 (A) (A) (A) (A) (A) (A) (A) (A) (A) (A) (A) (A)
                 (A) (A) (A) (A) (A) (A) (A) (A) (A) (A) (A) (A)
                 (A) (A) (A) (A) (A) (A) (A) (A) (A) (A) (A) (A)
                 (A) (A) (A) (A) (A) (A) (A) (A) (A) (A) (A) (A)
                 (A) (A) (A) (A) (A) (A) (A) (A) (A) (A) (A) (A)
                 (A) (A) (A) (A) (A) (A) (A) (A) (A) (A) (A) (A)
                 (A) (A) (A) (A) (A) (A) (A) (A) (A) (A) (A) (A)
                 (A) (A) (A) (A) (A) (A) (A) (A) (A) (A) (A) (A)
                 (A) (A) (A) (A) (A) (A) (A) (A) (A) (A) (A) (A)
                 (A) (A) (A) (A) (A) (A) (A) (A) (A) (A) (A) (A)
                 (A) (A) (A) (A) (A) (A) (A) (A) (A) (A) (A) (A)
                 (A) (A) (A) (A) (A) (A) (A) (A) (A) (A) (A) (A)
                 (A) (A) (A) (A) (A) (A) (A) (A) (A) (A) (A) (A)
                 (A) (A) (A) (A) (A) (A) (A) (A) (A) (A) (A) (A)
                 (A) (A) (A) (A) (A) (A) (A) (A) (A) (A) (A) (A)
                 (A) (A) (A) (A) (A) (A) (A) (A) (A) (A) (A) (A)
                 (A) (A) (A) (A) (A) (A) (A) (A) (A) (A) (A) (A)
                 (A) (A) (A) (A) (A) (A) (A) (A) (A) (A) (A) (A)
                 (A) (A) (A) (A) (A) (A) (A) (A) (A) (A) (A) (A)
                 (A) (A) (A) (A) (A) (A) (A) (A) (A) (A) (A) (A)
                 (A) (A) (A) (A) (A) (A) (A) (A) (A) (A) (A) (A)
                 (A) (A) (A) (A) (A) (A) (A) (A) (A) (A) (A) (A)
                 (A) (A) (A) (A) (A) (A) (A) (A) (A) (A) (A) (A)
                 (A) (A) (A) (A) (A) (A) (A) (A) (A) (A) (A) (A)
                 (A) (A) (A) (A) (A) (A) (A) (A) (A) (A) (A) (A)
                 (A) (A) (A) (A) (A) (A) (A) (A) (A) (A) (A) (A)
                 (A) (A) (A) (A) (A) (A) (A) (A) (A) (A) (A) (A)
                 (A) (A) (A) (A) (A) (A) (A) (A) (A) (A) (A) (A)
                 (A) (A)
 The electronic state of the initial guess is 1-A.
 Requested convergence on RMS density matrix=1.00D-08 within 128 cycles.
 Requested convergence on MAX density matrix=1.00D-06.
 Requested convergence on             energy=1.00D-06.
 No special actions if energy rises.
 Keep R1 ints in memory in canonical form, NReq=4415201192.
 SCF Done:  E(RB3LYP) =  -1157.39517388     A.U. after   29 cycles
             Convg  =    0.5972D-08             -V/T =  2.0024

 **********************************************************************

            Population analysis using the SCF density.

 **********************************************************************

 Orbital symmetries:
       Occupied  (A) (A) (A) (A) (A) (A) (A) (A) (A) (A) (A) (A)
                 (A) (A) (A) (A) (A) (A) (A) (A) (A) (A) (A) (A)
                 (A) (A) (A) (A) (A) (A) (A) (A) (A) (A) (A) (A)
                 (A) (A) (A) (A) (A) (A) (A) (A) (A) (A) (A) (A)
                 (A) (A) (A) (A) (A) (A) (A) (A) (A) (A) (A) (A)
                 (A) (A) (A) (A)
       Virtual   (A) (A) (A) (A) (A) (A) (A) (A) (A) (A) (A) (A)
                 (A) (A) (A) (A) (A) (A) (A) (A) (A) (A) (A) (A)
                 (A) (A) (A) (A) (A) (A) (A) (A) (A) (A) (A) (A)
                 (A) (A) (A) (A) (A) (A) (A) (A) (A) (A) (A) (A)
                 (A) (A) (A) (A) (A) (A) (A) (A) (A) (A) (A) (A)
                 (A) (A) (A) (A) (A) (A) (A) (A) (A) (A) (A) (A)
                 (A) (A) (A) (A) (A) (A) (A) (A) (A) (A) (A) (A)
                 (A) (A) (A) (A) (A) (A) (A) (A) (A) (A) (A) (A)
                 (A) (A) (A) (A) (A) (A) (A) (A) (A) (A) (A) (A)
                 (A) (A) (A) (A) (A) (A) (A) (A) (A) (A) (A) (A)
                 (A) (A) (A) (A) (A) (A) (A) (A) (A) (A) (A) (A)
                 (A) (A) (A) (A) (A) (A) (A) (A) (A) (A) (A) (A)
                 (A) (A) (A) (A) (A) (A) (A) (A) (A) (A) (A) (A)
                 (A) (A) (A) (A) (A) (A) (A) (A) (A) (A) (A) (A)
                 (A) (A) (A) (A) (A) (A) (A) (A) (A) (A) (A) (A)
                 (A) (A) (A) (A) (A) (A) (A) (A) (A) (A) (A) (A)
                 (A) (A) (A) (A) (A) (A) (A) (A) (A) (A) (A) (A)
                 (A) (A) (A) (A) (A) (A) (A) (A) (A) (A) (A) (A)
                 (A) (A) (A) (A) (A) (A) (A) (A) (A) (A) (A) (A)
                 (A) (A) (A) (A) (A) (A) (A) (A) (A) (A) (A) (A)
                 (A) (A) (A) (A) (A) (A) (A) (A) (A) (A) (A) (A)
                 (A) (A) (A) (A) (A) (A) (A) (A) (A) (A) (A) (A)
                 (A) (A) (A) (A) (A) (A) (A) (A) (A) (A) (A) (A)
                 (A) (A) (A) (A) (A) (A) (A) (A) (A) (A) (A) (A)
                 (A) (A) (A) (A) (A) (A) (A) (A) (A) (A) (A) (A)
                 (A) (A) (A) (A) (A) (A) (A) (A) (A) (A) (A) (A)
                 (A) (A) (A) (A) (A) (A) (A) (A) (A) (A) (A) (A)
                 (A) (A) (A) (A) (A) (A) (A) (A) (A) (A) (A) (A)
                 (A) (A) (A) (A) (A) (A) (A) (A) (A) (A) (A) (A)
                 (A) (A)
 The electronic state is 1-A.
 Alpha  occ. eigenvalues --  -76.82394 -18.96526 -18.90840 -18.86799 -18.74425
 Alpha  occ. eigenvalues --  -18.74408 -18.74223 -14.10979 -10.04896 -10.04373
 Alpha  occ. eigenvalues --  -10.01806 -10.00156  -9.99351  -9.98796  -9.98404
 Alpha  occ. eigenvalues --   -9.98136  -6.30458  -4.46820  -4.46541  -4.46510
 Alpha  occ. eigenvalues --   -0.88903  -0.84546  -0.79279  -0.75866  -0.66061
 Alpha  occ. eigenvalues --   -0.62174  -0.59762  -0.58467  -0.56675  -0.53396
 Alpha  occ. eigenvalues --   -0.47603  -0.46330  -0.41570  -0.38399  -0.35228
 Alpha  occ. eigenvalues --   -0.33114  -0.29811  -0.27725  -0.26548  -0.25618
 Alpha  occ. eigenvalues --   -0.24884  -0.23691  -0.22957  -0.22240  -0.21860
 Alpha  occ. eigenvalues --   -0.20025  -0.18421  -0.18231  -0.14781  -0.13705
 Alpha  occ. eigenvalues --   -0.10132  -0.09667  -0.07936  -0.06802  -0.05515
 Alpha  occ. eigenvalues --   -0.05426  -0.04047  -0.02494   0.00393   0.02236
 Alpha  occ. eigenvalues --    0.03080   0.06156   0.06726   0.09597
 Alpha virt. eigenvalues --    0.11722   0.12511   0.14869   0.16270   0.17488
 Alpha virt. eigenvalues --    0.18928   0.19431   0.20184   0.20980   0.21366
 Alpha virt. eigenvalues --    0.22317   0.22869   0.23564   0.24197   0.24326
 Alpha virt. eigenvalues --    0.25086   0.26130   0.26526   0.26812   0.27632
 Alpha virt. eigenvalues --    0.28374   0.28575   0.29216   0.29507   0.30186
 Alpha virt. eigenvalues --    0.30701   0.30968   0.31278   0.31691   0.31983
 Alpha virt. eigenvalues --    0.32343   0.32937   0.33481   0.34126   0.34936
 Alpha virt. eigenvalues --    0.35291   0.35784   0.36398   0.37549   0.37932
 Alpha virt. eigenvalues --    0.38143   0.38869   0.39223   0.39313   0.40025
 Alpha virt. eigenvalues --    0.40827   0.42082   0.42595   0.43283   0.43463
 Alpha virt. eigenvalues --    0.44098   0.44238   0.44688   0.45536   0.45675
 Alpha virt. eigenvalues --    0.46141   0.46446   0.47449   0.47609   0.47921
 Alpha virt. eigenvalues --    0.48644   0.48932   0.49367   0.49588   0.50273
 Alpha virt. eigenvalues --    0.50758   0.50935   0.51555   0.52336   0.52762
 Alpha virt. eigenvalues --    0.53658   0.54067   0.54134   0.54620   0.55400
 Alpha virt. eigenvalues --    0.55640   0.55892   0.56589   0.57416   0.57856
 Alpha virt. eigenvalues --    0.58506   0.59231   0.59356   0.60014   0.60577
 Alpha virt. eigenvalues --    0.61042   0.61431   0.62523   0.62838   0.63956
 Alpha virt. eigenvalues --    0.64435   0.65287   0.65623   0.66115   0.67060
 Alpha virt. eigenvalues --    0.67474   0.69773   0.70434   0.71996   0.73390
 Alpha virt. eigenvalues --    0.74095   0.75350   0.76378   0.76557   0.77822
 Alpha virt. eigenvalues --    0.78781   0.79688   0.80705   0.82249   0.83560
 Alpha virt. eigenvalues --    0.83592   0.83978   0.84865   0.85709   0.87065
 Alpha virt. eigenvalues --    0.87725   0.88141   0.90328   0.91884   0.92981
 Alpha virt. eigenvalues --    0.93341   0.94180   0.95370   0.96677   0.98560
 Alpha virt. eigenvalues --    1.02047   1.02677   1.03292   1.04352   1.05257
 Alpha virt. eigenvalues --    1.07619   1.09935   1.11003   1.11272   1.12053
 Alpha virt. eigenvalues --    1.12947   1.15052   1.16374   1.18101   1.18679
 Alpha virt. eigenvalues --    1.20273   1.20822   1.22251   1.22411   1.23636
 Alpha virt. eigenvalues --    1.24818   1.26063   1.28318   1.30396   1.30757
 Alpha virt. eigenvalues --    1.31567   1.31669   1.33857   1.35207   1.36920
 Alpha virt. eigenvalues --    1.37776   1.39157   1.40098   1.41506   1.43515
 Alpha virt. eigenvalues --    1.44221   1.45945   1.46967   1.47520   1.48507
 Alpha virt. eigenvalues --    1.48661   1.48856   1.49901   1.50242   1.51661
 Alpha virt. eigenvalues --    1.53371   1.54528   1.56611   1.57941   1.58248
 Alpha virt. eigenvalues --    1.60349   1.61546   1.61571   1.64428   1.65130
 Alpha virt. eigenvalues --    1.68850   1.71190   1.71881   1.72756   1.73953
 Alpha virt. eigenvalues --    1.74836   1.75764   1.79168   1.81176   1.81624
 Alpha virt. eigenvalues --    1.82691   1.83866   1.84487   1.86366   1.87371
 Alpha virt. eigenvalues --    1.89804   1.90789   1.92383   1.93559   1.96592
 Alpha virt. eigenvalues --    1.97460   1.98695   1.99970   2.00540   2.01431
 Alpha virt. eigenvalues --    2.03225   2.04477   2.06109   2.06336   2.10267
 Alpha virt. eigenvalues --    2.12199   2.13096   2.14497   2.15090   2.17481
 Alpha virt. eigenvalues --    2.18055   2.19639   2.20672   2.22154   2.26104
 Alpha virt. eigenvalues --    2.27306   2.29500   2.31809   2.37724   2.38613
 Alpha virt. eigenvalues --    2.39942   2.43891   2.45603   2.49451   2.52215
 Alpha virt. eigenvalues --    2.53227   2.59436   2.63070   2.65127   2.65540
 Alpha virt. eigenvalues --    2.70599   2.72885   2.73649   2.76093   2.76955
 Alpha virt. eigenvalues --    2.79679   2.81174   2.81393   2.85576   2.86448
 Alpha virt. eigenvalues --    2.89681   2.90594   2.93186   2.96793   2.96978
 Alpha virt. eigenvalues --    2.99402   3.01170   3.04838   3.06627   3.10464
 Alpha virt. eigenvalues --    3.12364   3.12470   3.14704   3.15118   3.15769
 Alpha virt. eigenvalues --    3.18509   3.18696   3.18905   3.19645   3.20848
 Alpha virt. eigenvalues --    3.21851   3.23072   3.24692   3.25517   3.25665
 Alpha virt. eigenvalues --    3.29281   3.31106   3.31282   3.34479   3.37453
 Alpha virt. eigenvalues --    3.40015   3.40623   3.42455   3.43255   3.43413
 Alpha virt. eigenvalues --    3.44509   3.46610   3.48964   3.49871   3.55363
 Alpha virt. eigenvalues --    3.55644   3.57851   3.58731   3.65782   3.69877
 Alpha virt. eigenvalues --    3.77860   3.80651   3.81970   3.83759   3.85301
 Alpha virt. eigenvalues --    3.95487   3.96803   3.99550   4.01881   4.02217
 Alpha virt. eigenvalues --    4.07860   4.07969   4.16090   4.17410   4.21130
 Alpha virt. eigenvalues --    4.28959   4.42089   4.50528   4.58068   4.66011
 Alpha virt. eigenvalues --    4.70968   5.24210   5.31316   5.31951   5.33813
 Alpha virt. eigenvalues --    5.34846   5.37846   5.39124   5.41213   5.41811
 Alpha virt. eigenvalues --    5.44766   5.46976   5.52731   5.54549   5.55483
 Alpha virt. eigenvalues --    5.59625   5.61237   5.83845   5.93579   5.99836
 Alpha virt. eigenvalues --    7.64935  14.31688  14.40119  14.44025  23.85319
 Alpha virt. eigenvalues --   24.10541  24.11972  24.14175  24.15212  24.22786
 Alpha virt. eigenvalues --   24.28249  24.34285  35.92923  50.15884  50.20404
 Alpha virt. eigenvalues --   50.21150  50.24604  50.25092  50.30845 163.74130
          Condensed to atoms (all electrons):
              1          2          3          4          5          6
     1  N    6.966352  -0.491597  -0.602550   0.997988  -0.012962   0.391901
     2  C   -0.491597  17.985209   0.358593  -5.037721  -0.310744  -3.825147
     3  C   -0.602550   0.358593   8.255846  -1.566459   0.031212   0.080084
     4  C    0.997988  -5.037721  -1.566459  25.915154   0.494329  -2.439344
     5  O   -0.012962  -0.310744   0.031212   0.494329   8.026919  -0.147580
     6  C    0.391901  -3.825147   0.080084  -2.439344  -0.147580  24.398296
     7  C    0.123490  -1.166797  -0.378774   1.247513  -0.055117  -4.503312
     8  O   -0.001556   0.110387  -0.005664   0.044003  -0.020057  -0.421119
     9  C   -0.423517   2.339178   0.201237 -10.558647   0.092934   4.317557
    10  C    0.331343  -1.391306  -0.835601   0.992532  -0.077383  -3.654495
    11  C   -0.189674  -2.188413  -0.213871  -4.356283  -0.003775  -8.147168
    12  O   -0.009580   0.012584  -0.005710   0.003417   0.000225  -0.069278
    13  P    0.005329  -0.051821   0.017615  -0.209010  -0.000441  -0.574991
    14  O   -0.000919  -0.002064  -0.000035  -0.014126   0.000007  -0.055899
    15  O    0.001503   0.003015   0.000162   0.000793   0.000000   0.016099
    16  O   -0.000646  -0.001783  -0.000114  -0.001604  -0.000005  -0.009653
    17  H    0.012066  -0.431091   0.409953   0.179551   0.019234   0.137068
    18  H    0.027569   0.018960   0.292383  -0.034345  -0.007504  -0.033248
    19  H   -0.007222   0.126073   0.386878  -0.055441  -0.006318  -0.063695
    20  H    0.005444  -0.005934  -0.044244   0.009664   0.236357  -0.021467
    21  H   -0.001144   0.029593  -0.001661  -0.200608  -0.009429  -0.844536
    22  H   -0.107183   0.088994   0.042756  -0.073754  -0.000705  -0.119686
    23  H    0.007597   0.070692  -0.024288   0.277533  -0.000973   0.538581
    24  H    0.001314   0.037305  -0.012391   0.159151   0.002264   0.440270
              7          8          9         10         11         12
     1  N    0.123490  -0.001556  -0.423517   0.331343  -0.189674  -0.009580
     2  C   -1.166797   0.110387   2.339178  -1.391306  -2.188413   0.012584
     3  C   -0.378774  -0.005664   0.201237  -0.835601  -0.213871  -0.005710
     4  C    1.247513   0.044003 -10.558647   0.992532  -4.356283   0.003417
     5  O   -0.055117  -0.020057   0.092934  -0.077383  -0.003775   0.000225
     6  C   -4.503312  -0.421119   4.317557  -3.654495  -8.147168  -0.069278
     7  C    9.151077   0.497280  -2.184910   0.446252   2.321822  -0.017511
     8  O    0.497280   8.205084   0.005940   0.018173  -0.034371   0.000785
     9  C   -2.184910   0.005940  24.414874  -7.261493  -4.589781  -0.366315
    10  C    0.446252   0.018173  -7.261493  12.615936   4.664497   0.248787
    11  C    2.321822  -0.034371  -4.589781   4.664497  19.344194   0.296518
    12  O   -0.017511   0.000785  -0.366315   0.248787   0.296518   8.350151
    13  P    0.087658  -0.004297   0.639533  -0.417991   0.078485  -0.118981
    14  O   -0.000371  -0.000059  -0.077037   0.028735   0.089448   0.036643
    15  O    0.002236  -0.000004   0.262127  -0.102225  -0.264634   0.036495
    16  O   -0.004442   0.000016  -0.078025   0.022654   0.026469   0.018965
    17  H   -0.007619  -0.001318   0.054307  -0.044658   0.005982   0.000045
    18  H    0.008515   0.001886   0.002060   0.030220   0.003257  -0.000050
    19  H    0.002172   0.000598  -0.036203   0.009225  -0.012388   0.000218
    20  H    0.004339  -0.007181  -0.011037   0.009366   0.008734  -0.000203
    21  H    0.797189  -0.059958  -0.042461  -0.014867   0.394989  -0.005849
    22  H   -0.020727  -0.000994   0.037901   0.381680   0.059354  -0.007614
    23  H   -0.137620   0.004198  -0.211869   0.092267  -0.347143  -0.057292
    24  H   -0.075270   0.003332  -0.231343   0.120051  -0.062293  -0.071438
             13         14         15         16         17         18
     1  N    0.005329  -0.000919   0.001503  -0.000646   0.012066   0.027569
     2  C   -0.051821  -0.002064   0.003015  -0.001783  -0.431091   0.018960
     3  C    0.017615  -0.000035   0.000162  -0.000114   0.409953   0.292383
     4  C   -0.209010  -0.014126   0.000793  -0.001604   0.179551  -0.034345
     5  O   -0.000441   0.000007   0.000000  -0.000005   0.019234  -0.007504
     6  C   -0.574991  -0.055899   0.016099  -0.009653   0.137068  -0.033248
     7  C    0.087658  -0.000371   0.002236  -0.004442  -0.007619   0.008515
     8  O   -0.004297  -0.000059  -0.000004   0.000016  -0.001318   0.001886
     9  C    0.639533  -0.077037   0.262127  -0.078025   0.054307   0.002060
    10  C   -0.417991   0.028735  -0.102225   0.022654  -0.044658   0.030220
    11  C    0.078485   0.089448  -0.264634   0.026469   0.005982   0.003257
    12  O   -0.118981   0.036643   0.036495   0.018965   0.000045  -0.000050
    13  P   14.141472   0.352254   0.335564   0.348135   0.000360  -0.000076
    14  O    0.352254   8.537360  -0.149867  -0.151967   0.000027  -0.000013
    15  O    0.335564  -0.149867   8.579422  -0.148804  -0.000002   0.000001
    16  O    0.348135  -0.151967  -0.148804   8.585387  -0.000012   0.000010
    17  H    0.000360   0.000027  -0.000002  -0.000012   0.671566  -0.057781
    18  H   -0.000076  -0.000013   0.000001   0.000010  -0.057781   0.659395
    19  H   -0.000566  -0.000018   0.000000   0.000011  -0.065810  -0.024826
    20  H    0.000968   0.000014   0.000004  -0.000001  -0.003825   0.011768
    21  H    0.053834  -0.007944   0.001975  -0.002928  -0.000519   0.001831
    22  H    0.038158  -0.000720   0.001404  -0.000797  -0.002448   0.000434
    23  H   -0.260144  -0.011318   0.011426   0.064410  -0.002194   0.001475
    24  H   -0.233131   0.044848   0.002653  -0.004769   0.001959  -0.001746
             19         20         21         22         23         24
     1  N   -0.007222   0.005444  -0.001144  -0.107183   0.007597   0.001314
     2  C    0.126073  -0.005934   0.029593   0.088994   0.070692   0.037305
     3  C    0.386878  -0.044244  -0.001661   0.042756  -0.024288  -0.012391
     4  C   -0.055441   0.009664  -0.200608  -0.073754   0.277533   0.159151
     5  O   -0.006318   0.236357  -0.009429  -0.000705  -0.000973   0.002264
     6  C   -0.063695  -0.021467  -0.844536  -0.119686   0.538581   0.440270
     7  C    0.002172   0.004339   0.797189  -0.020727  -0.137620  -0.075270
     8  O    0.000598  -0.007181  -0.059958  -0.000994   0.004198   0.003332
     9  C   -0.036203  -0.011037  -0.042461   0.037901  -0.211869  -0.231343
    10  C    0.009225   0.009366  -0.014867   0.381680   0.092267   0.120051
    11  C   -0.012388   0.008734   0.394989   0.059354  -0.347143  -0.062293
    12  O    0.000218  -0.000203  -0.005849  -0.007614  -0.057292  -0.071438
    13  P   -0.000566   0.000968   0.053834   0.038158  -0.260144  -0.233131
    14  O   -0.000018   0.000014  -0.007944  -0.000720  -0.011318   0.044848
    15  O    0.000000   0.000004   0.001975   0.001404   0.011426   0.002653
    16  O    0.000011  -0.000001  -0.002928  -0.000797   0.064410  -0.004769
    17  H   -0.065810  -0.003825  -0.000519  -0.002448  -0.002194   0.001959
    18  H   -0.024826   0.011768   0.001831   0.000434   0.001475  -0.001746
    19  H    0.607377   0.004147   0.000605   0.001041   0.002595  -0.001425
    20  H    0.004147   0.563696  -0.000752   0.000212   0.002988  -0.003401
    21  H    0.000605  -0.000752   0.818518  -0.001683  -0.042225  -0.052278
    22  H    0.001041   0.000212  -0.001683   0.486961  -0.018275  -0.015773
    23  H    0.002595   0.002988  -0.042225  -0.018275   1.058251  -0.163690
    24  H   -0.001425  -0.003401  -0.052278  -0.015773  -0.163690   0.949399
 Mulliken atomic charges:
              1
     1  N   -0.023348
     2  C   -0.276167
     3  C   -0.385359
     4  C    0.225715
     5  O   -0.250487
     6  C    0.610761
     7  C   -0.137074
     8  O   -0.335105
     9  C   -0.295011
    10  C   -0.211700
    11  C   -0.883960
    12  O   -0.275013
    13  P    0.772087
    14  O   -0.616979
    15  O   -0.589345
    16  O   -0.660506
    17  H    0.125158
    18  H    0.099827
    19  H    0.132972
    20  H    0.240345
    21  H    0.190305
    22  H    0.231465
    23  H    0.145019
    24  H    0.166401
 Sum of Mulliken atomic charges =  -2.00000
 Mulliken charges with hydrogens summed into heavy atoms:
              1
     1  N   -0.023348
     2  C   -0.276167
     3  C   -0.027403
     4  C    0.225715
     5  O   -0.010141
     6  C    0.610761
     7  C    0.053232
     8  O   -0.335105
     9  C   -0.295011
    10  C    0.019766
    11  C   -0.572540
    12  O   -0.275013
    13  P    0.772087
    14  O   -0.616979
    15  O   -0.589345
    16  O   -0.660506
 Sum of Mulliken charges with hydrogens summed into heavy atoms =  -2.00000
 Electronic spatial extent (au):  <R**2>=           5183.2780
 Charge=             -2.0000 electrons
 Dipole moment (field-independent basis, Debye):
    X=             22.6559    Y=             -0.7351    Z=              0.7869  Tot=             22.6814
 Quadrupole moment (field-independent basis, Debye-Ang):
   XX=           -246.9538   YY=           -139.6123   ZZ=           -116.0878
   XY=             -9.4491   XZ=              8.6079   YZ=              1.4376
 Traceless Quadrupole moment (field-independent basis, Debye-Ang):
   XX=            -79.4025   YY=             27.9390   ZZ=             51.4635
   XY=             -9.4491   XZ=              8.6079   YZ=              1.4376
 Octapole moment (field-independent basis, Debye-Ang**2):
  XXX=            436.3200  YYY=             -8.2500  ZZZ=             -2.3389  XYY=            -13.8029
  XXY=             16.8274  XXZ=             19.5671  XZZ=             54.2098  YZZ=             -3.2760
  YYZ=              1.4064  XYZ=             12.4958
 Hexadecapole moment (field-independent basis, Debye-Ang**3):
 XXXX=          -7822.3693 YYYY=          -1540.6084 ZZZZ=           -302.9329 XXXY=           -169.6544
 XXXZ=            156.4986 YYYX=            -62.7584 YYYZ=              1.1869 ZZZX=             16.9710
 ZZZY=              0.3724 XXYY=          -1490.1414 XXZZ=          -1095.8751 YYZZ=           -267.4015
 XXYZ=             31.6821 YYXZ=             18.9760 ZZXY=             58.5182
 N-N= 1.221440009151D+03 E-N=-5.204945596065D+03  KE= 1.154620768206D+03
 Calling FoFJK, ICntrl=      2127 FMM=F ISym2X=0 I1Cent= 0 IOpClX= 0 NMat=1 NMatS=1 NMatT=0.
 ***** Axes restored to original set *****
 -------------------------------------------------------------------
 Center     Atomic                   Forces (Hartrees/Bohr)
 Number     Number              X              Y              Z
 -------------------------------------------------------------------
      1        7           0.042246777    0.000338319    0.003209126
      2        6          -0.015886618   -0.001055961    0.012321402
      3        6           0.000794999   -0.004644614   -0.006161668
      4        6           0.009339394    0.000526233   -0.019056814
      5        8          -0.000343526   -0.006008616    0.029409151
      6        6          -0.009682101    0.000069198   -0.007503693
      7        6           0.027002189   -0.000362174    0.008739543
      8        8          -0.038921593   -0.001983236    0.015649880
      9        6          -0.008137938    0.001158960   -0.021870383
     10        6          -0.005650540    0.000321841   -0.002593087
     11        6           0.020099390    0.000763128    0.017877324
     12        8           0.001347629   -0.003590828    0.041199119
     13       15           0.007221891   -0.068702733   -0.141246901
     14        8          -0.030219225    0.055758158    0.014486967
     15        8          -0.017243385   -0.004631588    0.046861257
     16        8           0.027978325    0.021236909    0.023741469
     17        1           0.001718170    0.002395040    0.005269941
     18        1           0.001358522    0.002135400    0.004546170
     19        1           0.002186979    0.001231335    0.000239504
     20        1          -0.007799512    0.005558038    0.000521250
     21        1          -0.000248884    0.000721055   -0.015680764
     22        1           0.001924725   -0.000330942   -0.000695176
     23        1          -0.004859076   -0.002726845   -0.005161423
     24        1          -0.004226593    0.001823924   -0.004102192
 -------------------------------------------------------------------
 Cartesian Forces:  Max     0.141246901 RMS     0.024474563

 GradGradGradGradGradGradGradGradGradGradGradGradGradGradGradGradGradGrad
 Berny optimization.
 Internal  Forces:  Max     0.061186369 RMS     0.015939017
 Search for a local minimum.
 Step number   1 out of a maximum of  117
 All quantities printed in internal units (Hartrees-Bohrs-Radians)
 Mixed Optimization -- RFO/linear search
 Second derivative matrix not updated -- first step.
 ITU=  0
     Eigenvalues ---    0.00673   0.00681   0.01132   0.01132   0.01326
     Eigenvalues ---    0.01553   0.01638   0.01782   0.02090   0.02152
     Eigenvalues ---    0.02273   0.02305   0.02495   0.02668   0.03285
     Eigenvalues ---    0.06446   0.07467   0.07482   0.07490   0.11371
     Eigenvalues ---    0.13905   0.16000   0.16000   0.16000   0.16000
     Eigenvalues ---    0.16000   0.16000   0.16643   0.16647   0.22000
     Eigenvalues ---    0.22115   0.23333   0.24998   0.24999   0.25000
     Eigenvalues ---    0.25000   0.25000   0.25000   0.25000   0.25000
     Eigenvalues ---    0.25000   0.25000   0.31648   0.31711   0.34769
     Eigenvalues ---    0.34785   0.34854   0.34870   0.34900   0.35467
     Eigenvalues ---    0.36038   0.36053   0.41325   0.42838   0.43435
     Eigenvalues ---    0.46152   0.48612   0.49359   0.49388   0.49523
     Eigenvalues ---    0.53756   0.54117   0.59716   0.61818   0.83891
     Eigenvalues ---    0.98826
 RFO step:  Lambda=-6.44132407D-02 EMin= 6.72556486D-03
 Linear search not attempted -- first point.
 Maximum step size (   0.300) exceeded in Quadratic search.
    -- Step size scaled by   0.728
 Iteration  1 RMS(Cart)=  0.07755874 RMS(Int)=  0.00437732
 Iteration  2 RMS(Cart)=  0.00504227 RMS(Int)=  0.00088767
 Iteration  3 RMS(Cart)=  0.00001521 RMS(Int)=  0.00088761
 Iteration  4 RMS(Cart)=  0.00000006 RMS(Int)=  0.00088761
 Variable       Old X    -DE/DX   Delta X   Delta X   Delta X     New X
                                 (Linear)    (Quad)   (Total)
    R1        2.48631   0.02097   0.00000   0.02227   0.02228   2.50859
    R2        2.49231   0.01886   0.00000   0.02015   0.02017   2.51247
    R3        2.84793   0.00606   0.00000   0.01158   0.01158   2.85951
    R4        2.62494   0.01370   0.00000   0.01868   0.01867   2.64361
    R5        2.05887   0.00413   0.00000   0.00727   0.00727   2.06614
    R6        2.05913   0.00110   0.00000   0.00193   0.00193   2.06106
    R7        2.06026   0.00131   0.00000   0.00232   0.00232   2.06258
    R8        2.56255   0.02911   0.00000   0.03519   0.03519   2.59774
    R9        2.65669   0.02205   0.00000   0.03120   0.03118   2.68787
   R10        1.82625  -0.00376   0.00000  -0.00452  -0.00452   1.82172
   R11        2.78223   0.01098   0.00000   0.01907   0.01907   2.80130
   R12        2.64805   0.01955   0.00000   0.02706   0.02705   2.67510
   R13        2.29112   0.03592   0.00000   0.02484   0.02484   2.31596
   R14        2.03999   0.01454   0.00000   0.02491   0.02491   2.06490
   R15        2.60615   0.01679   0.00000   0.02178   0.02179   2.62794
   R16        2.84675   0.00587   0.00000   0.01120   0.01120   2.85795
   R17        2.04023   0.00174   0.00000   0.00299   0.00299   2.04321
   R18        2.69792   0.00156   0.00000   0.00238   0.00238   2.70030
   R19        2.05837   0.00571   0.00000   0.01004   0.01004   2.06842
   R20        2.06051   0.00438   0.00000   0.00774   0.00774   2.06825
   R21        3.04188   0.05629   0.00000   0.07339   0.07339   3.11528
   R22        2.79583   0.06119   0.00000   0.04930   0.04930   2.84513
   R23        3.04218  -0.04479   0.00000  -0.05843  -0.05843   2.98375
   R24        3.04050  -0.03604   0.00000  -0.04687  -0.04687   2.99363
    A1        2.13359  -0.01423   0.00000  -0.03225  -0.03220   2.10139
    A2        2.08787  -0.01201   0.00000  -0.02803  -0.02804   2.05983
    A3        2.10812   0.00667   0.00000   0.01592   0.01591   2.12402
    A4        2.08718   0.00535   0.00000   0.01216   0.01214   2.09932
    A5        1.91059   0.00465   0.00000   0.01401   0.01395   1.92454
    A6        1.91094   0.00603   0.00000   0.02054   0.02045   1.93138
    A7        1.91010  -0.00074   0.00000  -0.00230  -0.00232   1.90778
    A8        1.91086  -0.00547   0.00000  -0.01796  -0.01810   1.89277
    A9        1.90978  -0.00317   0.00000  -0.01223  -0.01222   1.89756
   A10        1.91153  -0.00130   0.00000  -0.00207  -0.00211   1.90941
   A11        2.10403  -0.01359   0.00000  -0.03125  -0.03126   2.07278
   A12        2.07340   0.00286   0.00000   0.00607   0.00601   2.07941
   A13        2.10571   0.01072   0.00000   0.02505   0.02502   2.13073
   A14        1.86396   0.01155   0.00000   0.03745   0.03745   1.90141
   A15        2.11165   0.01896   0.00000   0.04463   0.04464   2.15629
   A16        2.06051  -0.00462   0.00000  -0.01220  -0.01223   2.04828
   A17        2.11102  -0.01434   0.00000  -0.03244  -0.03243   2.07859
   A18        2.09368   0.03702   0.00000   0.09474   0.09470   2.18838
   A19        2.09475  -0.02451   0.00000  -0.06683  -0.06687   2.02787
   A20        2.09476  -0.01252   0.00000  -0.02793  -0.02797   2.06679
   A21        2.07701  -0.00226   0.00000  -0.00669  -0.00668   2.07033
   A22        2.10359   0.00338   0.00000   0.00854   0.00853   2.11212
   A23        2.10259  -0.00111   0.00000  -0.00185  -0.00186   2.10073
   A24        2.11370   0.01160   0.00000   0.02919   0.02923   2.14293
   A25        2.08411  -0.00690   0.00000  -0.01816  -0.01818   2.06593
   A26        2.08537  -0.00470   0.00000  -0.01103  -0.01105   2.07432
   A27        1.91127   0.00466   0.00000   0.01364   0.01360   1.92486
   A28        1.91044   0.00270   0.00000   0.01216   0.01217   1.92261
   A29        1.91005   0.00246   0.00000   0.01203   0.01201   1.92206
   A30        1.91133  -0.00391   0.00000  -0.01370  -0.01383   1.89749
   A31        1.91091  -0.00296   0.00000  -0.00930  -0.00945   1.90145
   A32        1.90981  -0.00295   0.00000  -0.01483  -0.01499   1.89482
   A33        1.86460   0.03929   0.00000   0.09095   0.09095   1.95555
   A34        1.91054  -0.02654   0.00000  -0.05884  -0.06167   1.84888
   A35        1.91128  -0.03469   0.00000  -0.08081  -0.08410   1.82717
   A36        1.91071  -0.03679   0.00000  -0.08728  -0.09075   1.81996
   A37        1.90978   0.03688   0.00000   0.08956   0.08635   1.99613
   A38        1.91114   0.03320   0.00000   0.07787   0.07422   1.98536
   A39        1.91035   0.02800   0.00000   0.05960   0.05463   1.96497
    D1       -3.14147   0.00098   0.00000   0.00865   0.00850  -3.13297
    D2        0.00521  -0.00001   0.00000  -0.00033  -0.00038   0.00483
    D3       -0.00034  -0.00013   0.00000  -0.00096  -0.00094  -0.00128
    D4       -3.14149   0.00023   0.00000   0.00198   0.00197  -3.13953
    D5        1.57009  -0.00078   0.00000  -0.00520  -0.00520   1.56490
    D6       -2.61825  -0.00094   0.00000  -0.00603  -0.00593  -2.62418
    D7       -0.52290   0.00071   0.00000   0.00261   0.00270  -0.52020
    D8       -1.57652   0.00020   0.00000   0.00368   0.00356  -1.57296
    D9        0.51832   0.00004   0.00000   0.00286   0.00283   0.52114
   D10        2.61367   0.00169   0.00000   0.01150   0.01146   2.62513
   D11       -3.14081   0.00193   0.00000   0.01722   0.01702  -3.12379
   D12       -0.00990   0.00029   0.00000   0.00291   0.00296  -0.00694
   D13        0.00586   0.00099   0.00000   0.00836   0.00807   0.01393
   D14        3.13677  -0.00065   0.00000  -0.00595  -0.00599   3.13078
   D15       -1.58205  -0.00624   0.00000  -0.05224  -0.05220  -1.63425
   D16        1.57042  -0.00451   0.00000  -0.03753  -0.03757   1.53285
   D17       -3.13541  -0.00111   0.00000  -0.00971  -0.00978   3.13800
   D18        0.00969  -0.00049   0.00000  -0.00430  -0.00430   0.00539
   D19       -0.00451  -0.00291   0.00000  -0.02440  -0.02469  -0.02919
   D20        3.14059  -0.00229   0.00000  -0.01899  -0.01921   3.12138
   D21        0.00355  -0.00205   0.00000  -0.01996  -0.01996  -0.01640
   D22       -3.13658  -0.00028   0.00000  -0.00286  -0.00286  -3.13944
   D23        3.14154  -0.00267   0.00000  -0.02548  -0.02548   3.11606
   D24        0.00141  -0.00090   0.00000  -0.00838  -0.00838  -0.00697
   D25       -0.00512   0.00035   0.00000   0.00307   0.00305  -0.00207
   D26        3.13653  -0.00011   0.00000  -0.00123  -0.00121   3.13532
   D27        3.13997   0.00090   0.00000   0.00832   0.00811  -3.13510
   D28       -0.00156   0.00044   0.00000   0.00402   0.00385   0.00229
   D29        0.00039  -0.00002   0.00000  -0.00042  -0.00042  -0.00003
   D30        3.14154  -0.00039   0.00000  -0.00337  -0.00335   3.13819
   D31       -3.14127   0.00044   0.00000   0.00388   0.00381  -3.13745
   D32       -0.00011   0.00008   0.00000   0.00093   0.00089   0.00077
   D33       -3.14092   0.00062   0.00000   0.00448   0.00447  -3.13645
   D34       -1.04541   0.00035   0.00000   0.00352   0.00353  -1.04188
   D35        1.04750  -0.00011   0.00000   0.00014   0.00009   1.04759
   D36        0.00074   0.00015   0.00000   0.00011   0.00013   0.00087
   D37        2.09625  -0.00012   0.00000  -0.00085  -0.00081   2.09544
   D38       -2.09402  -0.00058   0.00000  -0.00423  -0.00425  -2.09827
   D39       -3.14128  -0.00062   0.00000  -0.00577  -0.00578   3.13612
   D40        1.04693  -0.00439   0.00000  -0.02064  -0.02047   1.02647
   D41       -1.04705   0.00344   0.00000   0.01163   0.01147  -1.03558
   D42        1.04770  -0.00165   0.00000  -0.00393  -0.00352   1.04417
   D43        3.14139   0.00602   0.00000   0.02026   0.01862  -3.12318
   D44       -1.04731  -0.00350   0.00000  -0.00977  -0.00854  -1.05585
         Item               Value     Threshold  Converged?
 Maximum Force            0.061186     0.000450     NO 
 RMS     Force            0.015939     0.000300     NO 
 Maximum Displacement     0.308580     0.001800     NO 
 RMS     Displacement     0.077027     0.001200     NO 
 Predicted change in Energy=-3.293311D-02
 GradGradGradGradGradGradGradGradGradGradGradGradGradGradGradGradGradGrad

                          Input orientation:                          
 ---------------------------------------------------------------------
 Center     Atomic      Atomic             Coordinates (Angstroms)
 Number     Number       Type             X           Y           Z
 ---------------------------------------------------------------------
      1          7           0        2.064796   -0.019649    1.981979
      2          6           0        1.295315   -0.019178    3.063703
      3          6           0        1.971737   -0.030746    4.417238
      4          6           0       -0.100581   -0.003873    2.972786
      5          8           0       -0.838745    0.017179    4.132256
      6          6           0       -0.710796    0.020201    1.688196
      7          6           0       -2.178210    0.033446    1.478469
      8          8           0       -3.022294    0.009029    2.366676
      9          6           0        0.145658    0.020556    0.561067
     10          6           0        1.520500    0.000149    0.769115
     11          6           0       -0.414797    0.037155   -0.843515
     12          8           0        0.646315    0.027253   -1.800488
     13         15           0        0.082552    0.036394   -3.349600
     14          8           0       -0.728718    1.297267   -3.486739
     15          8           0        1.380218   -0.004352   -4.248174
     16          8           0       -0.776234   -1.290155   -3.460608
     17          1           0        2.154063    0.991931    4.758287
     18          1           0        1.346646   -0.534487    5.155521
     19          1           0        2.928779   -0.549488    4.337982
     20          1           0       -1.066168   -0.887652    4.374917
     21          1           0       -2.516750    0.049747    0.439666
     22          1           0        2.178037   -0.002871   -0.089184
     23          1           0       -1.044919   -0.842478   -1.008604
     24          1           0       -1.022403    0.934623   -0.995947
 ---------------------------------------------------------------------
                    Distance matrix (angstroms):
                    1          2          3          4          5
     1  N    0.000000
     2  C    1.327490   0.000000
     3  C    2.437062   1.513188   0.000000
     4  C    2.381346   1.398938   2.526196   0.000000
     5  O    3.613253   2.386910   2.825300   1.374663   0.000000
     6  C    2.791381   2.432704   3.827042   1.422361   2.447409
     7  C    4.273107   3.818522   5.085523   2.559476   2.972712
     8  O    5.101696   4.373601   5.398771   2.983947   2.808064
     9  C    2.388242   2.754356   4.266996   2.424380   3.704383
    10  C    1.329544   2.305692   3.676054   2.735706   4.108168
    11  C    3.759657   4.265444   5.777169   3.829434   4.993839
    12  O    4.039968   4.907516   6.357691   4.831457   6.115796
    13  P    5.688424   6.527200   7.993579   6.325166   7.538390
    14  O    6.280515   6.981263   8.457479   6.619138   7.726566
    15  O    6.267670   7.312385   8.685618   7.371230   8.669249
    16  O    6.269560   6.962279   8.437886   6.595422   7.704844
    17  H    2.956205   2.152069   1.093355   3.043528   3.209198
    18  H    3.294263   2.154966   1.090667   2.672143   2.475346
    19  H    2.564751   2.138509   1.091469   3.367266   3.815452
    20  H    4.035161   2.837275   3.156731   1.918175   0.964015
    21  H    4.834678   4.628408   5.997840   3.501063   4.056105
    22  H    2.074323   3.274165   4.511228   3.816773   5.188634
    23  H    4.392147   4.768459   6.260901   4.176900   5.216317
    24  H    4.394254   4.770986   6.260941   4.181073   5.212859
                    6          7          8          9         10
     6  C    0.000000
     7  C    1.482385   0.000000
     8  O    2.409042   1.225555   0.000000
     9  C    1.415603   2.498431   3.646406   0.000000
    10  C    2.413253   3.766264   4.815522   1.390644   0.000000
    11  C    2.549012   2.915690   4.135838   1.512361   2.519389
    12  O    3.743357   4.327765   5.551962   2.414052   2.714368
    13  P    5.099907   5.331164   6.505123   3.911208   4.362663
    14  O    5.330214   5.324619   6.417361   4.333505   4.985358
    15  O    6.293920   6.742276   7.945976   4.965235   5.019252
    16  O    5.313332   5.302069   6.378864   4.329171   4.983014
    17  H    4.310119   5.517652   5.786239   4.753305   4.159149
    18  H    4.069777   5.125219   5.211592   4.781156   4.422286
    19  H    4.537887   5.882004   6.293906   4.726077   3.875843
    20  H    2.858139   3.236428   2.943382   4.103513   4.525577
    21  H    2.195717   1.092697   1.992636   2.665335   4.050973
    22  H    3.391897   4.629875   5.751072   2.133996   1.081222
    23  H    2.851067   2.870039   4.003447   2.150853   3.232905
    24  H    2.852699   2.875891   4.020388   2.150390   3.233425
                   11         12         13         14         15
    11  C    0.000000
    12  O    1.428935   0.000000
    13  P    2.554960   1.648533   0.000000
    14  O    2.945006   2.519344   1.505578   0.000000
    15  O    3.849092   2.555539   1.578935   2.592607   0.000000
    16  O    2.956614   2.552490   1.584162   2.587990   2.631319
    17  H    6.236251   6.798635   8.422710   8.739801   9.094380
    18  H    6.278366   7.013706   8.617477   9.074752   9.418686
    19  H    6.194478   6.574427   8.218466   8.832557   8.741698
    20  H    5.339624   6.473429   7.863942   8.166602   9.006816
    21  H    2.462706   3.876053   4.595116   4.491105   6.096322
    22  H    2.700631   2.296877   3.875941   4.656498   4.234822
    23  H    1.094560   2.060045   2.742967   3.289323   4.132621
    24  H    1.094471   2.062820   2.750895   2.534129   4.151053
                   16         17         18         19         20
    16  O    0.000000
    17  H    9.019134   0.000000
    18  H    8.905915   1.771911   0.000000
    19  H    8.665663   1.775616   1.780939   0.000000
    20  H    7.851212   3.748292   2.560418   4.009405   0.000000
    21  H    4.476256   6.430762   6.124250   6.723819   4.297570
    22  H    4.663831   4.948552   5.336736   4.523516   5.588909
    23  H    2.506976   6.845113   6.618978   6.667991   5.383753
    24  H    3.329383   6.573007   6.753608   6.801854   5.671753
                   21         22         23         24
    21  H    0.000000
    22  H    4.724773   0.000000
    23  H    2.249409   3.455100   0.000000
    24  H    2.253235   3.455999   1.777288   0.000000
 Stoichiometry    C8H8NO6P(2-)
 Framework group  C1[X(C8H8NO6P)]
 Deg. of freedom    66
 Full point group                 C1      NOp   1
 Largest Abelian subgroup         C1      NOp   1
 Largest concise Abelian subgroup C1      NOp   1
                         Standard orientation:                         
 ---------------------------------------------------------------------
 Center     Atomic      Atomic             Coordinates (Angstroms)
 Number     Number       Type             X           Y           Z
 ---------------------------------------------------------------------
      1          7           0        1.897025   -2.037373    0.004523
      2          6           0        2.971059   -1.257216   -0.001457
      3          6           0        4.331264   -1.920224   -0.000870
      4          6           0        2.866239    0.137744   -0.012657
      5          8           0        4.018181    0.887405   -0.039830
      6          6           0        1.575543    0.735261   -0.026389
      7          6           0        1.351229    2.200554   -0.034535
      8          8           0        2.231193    3.053332   -0.014114
      9          6           0        0.456962   -0.132312   -0.021140
     10          6           0        0.678731   -1.505071   -0.005589
     11          6           0       -0.953174    0.414241   -0.026697
     12          8           0       -1.899517   -0.656320   -0.012868
     13         15           0       -3.454154   -0.107908   -0.009967
     14          8           0       -3.607994    0.705019   -1.267842
     15          8           0       -4.339550   -1.414507    0.033713
     16          8           0       -3.564505    0.746517    1.319450
     17          1           0        4.667043   -2.096682   -1.026316
     18          1           0        5.066783   -1.289074    0.499347
     19          1           0        4.265052   -2.879260    0.516016
     20          1           0        4.264811    1.115026    0.863877
     21          1           0        0.309042    2.528826   -0.042859
     22          1           0       -0.172982   -2.171083    0.001685
     23          1           0       -1.118421    1.040561    0.855617
     24          1           0       -1.117788    1.022481   -0.921579
 ---------------------------------------------------------------------
 Rotational constants (GHZ):      0.9725275      0.2326772      0.1961465
 Standard basis: 6-311++G(d,p) (5D, 7F)
 There are   416 symmetry adapted basis functions of A   symmetry.
 Integral buffers will be    131072 words long.
 Raffenetti 2 integral format.
 Two-electron integral symmetry is turned on.
   416 basis functions,   662 primitive gaussians,   432 cartesian basis functions
    64 alpha electrons       64 beta electrons
       nuclear repulsion energy      1209.5515629766 Hartrees.
 NAtoms=   24 NActive=   24 NUniq=   24 SFac= 1.00D+00 NAtFMM=   60 NAOKFM=F Big=F
 One-electron integrals computed using PRISM.
 NBasis=   416 RedAO= T  NBF=   416
 NBsUse=   414 1.00D-06 NBFU=   414
 Initial guess read from the read-write file.
 B after Tr=     0.000000    0.000000    0.000000
         Rot=    1.000000    0.000000    0.000000    0.000000 Ang=   0.00 deg.
 Initial guess orbital symmetries:
       Occupied  (A) (A) (A) (A) (A) (A) (A) (A) (A) (A) (A) (A)
                 (A) (A) (A) (A) (A) (A) (A) (A) (A) (A) (A) (A)
                 (A) (A) (A) (A) (A) (A) (A) (A) (A) (A) (A) (A)
                 (A) (A) (A) (A) (A) (A) (A) (A) (A) (A) (A) (A)
                 (A) (A) (A) (A) (A) (A) (A) (A) (A) (A) (A) (A)
                 (A) (A) (A) (A)
       Virtual   (A) (A) (A) (A) (A) (A) (A) (A) (A) (A) (A) (A)
                 (A) (A) (A) (A) (A) (A) (A) (A) (A) (A) (A) (A)
                 (A) (A) (A) (A) (A) (A) (A) (A) (A) (A) (A) (A)
                 (A) (A) (A) (A) (A) (A) (A) (A) (A) (A) (A) (A)
                 (A) (A) (A) (A) (A) (A) (A) (A) (A) (A) (A) (A)
                 (A) (A) (A) (A) (A) (A) (A) (A) (A) (A) (A) (A)
                 (A) (A) (A) (A) (A) (A) (A) (A) (A) (A) (A) (A)
                 (A) (A) (A) (A) (A) (A) (A) (A) (A) (A) (A) (A)
                 (A) (A) (A) (A) (A) (A) (A) (A) (A) (A) (A) (A)
                 (A) (A) (A) (A) (A) (A) (A) (A) (A) (A) (A) (A)
                 (A) (A) (A) (A) (A) (A) (A) (A) (A) (A) (A) (A)
                 (A) (A) (A) (A) (A) (A) (A) (A) (A) (A) (A) (A)
                 (A) (A) (A) (A) (A) (A) (A) (A) (A) (A) (A) (A)
                 (A) (A) (A) (A) (A) (A) (A) (A) (A) (A) (A) (A)
                 (A) (A) (A) (A) (A) (A) (A) (A) (A) (A) (A) (A)
                 (A) (A) (A) (A) (A) (A) (A) (A) (A) (A) (A) (A)
                 (A) (A) (A) (A) (A) (A) (A) (A) (A) (A) (A) (A)
                 (A) (A) (A) (A) (A) (A) (A) (A) (A) (A) (A) (A)
                 (A) (A) (A) (A) (A) (A) (A) (A) (A) (A) (A) (A)
                 (A) (A) (A) (A) (A) (A) (A) (A) (A) (A) (A) (A)
                 (A) (A) (A) (A) (A) (A) (A) (A) (A) (A) (A) (A)
                 (A) (A) (A) (A) (A) (A) (A) (A) (A) (A) (A) (A)
                 (A) (A) (A) (A) (A) (A) (A) (A) (A) (A) (A) (A)
                 (A) (A) (A) (A) (A) (A) (A) (A) (A) (A) (A) (A)
                 (A) (A) (A) (A) (A) (A) (A) (A) (A) (A) (A) (A)
                 (A) (A) (A) (A) (A) (A) (A) (A) (A) (A) (A) (A)
                 (A) (A) (A) (A) (A) (A) (A) (A) (A) (A) (A) (A)
                 (A) (A) (A) (A) (A) (A) (A) (A) (A) (A) (A) (A)
                 (A) (A) (A) (A) (A) (A) (A) (A) (A) (A) (A) (A)
                 (A) (A)
 Harris functional with IExCor=  402 diagonalized for initial guess.
 ExpMin= 3.48D-02 ExpMax= 7.75D+04 ExpMxC= 2.65D+03 IAcc=3 IRadAn=         5 AccDes= 0.00D+00
 HarFok:  IExCor=  402 AccDes= 0.00D+00 IRadAn=         5 IDoV= 1
 ScaDFX=  1.000000  1.000000  1.000000  1.000000
 FoFCou: FMM=F IPFlag=           0 FMFlag=      100000 FMFlg1=           0
         NFxFlg=           0 DoJE=T BraDBF=F KetDBF=T FulRan=T
         Omega=  0.000000  0.000000  1.000000  0.000000  0.000000 ICntrl=     500 IOpCl=  0
         NMat0=    1 NMatS0=    1 NMatT0=    0 NMatD0=    1 NMtDS0=    0 NMtDT0=    0
         I1Cent=           4 NGrid=           0.
 Petite list used in FoFCou.
 Requested convergence on RMS density matrix=1.00D-08 within 128 cycles.
 Requested convergence on MAX density matrix=1.00D-06.
 Requested convergence on             energy=1.00D-06.
 No special actions if energy rises.
 Keep R1 ints in memory in canonical form, NReq=4415201192.
 EnCoef did     7 forward-backward iterations
 SCF Done:  E(RB3LYP) =  -1157.42654838     A.U. after   23 cycles
             Convg  =    0.7298D-08             -V/T =  2.0028
 Calling FoFJK, ICntrl=      2127 FMM=F ISym2X=0 I1Cent= 0 IOpClX= 0 NMat=1 NMatS=1 NMatT=0.
 ***** Axes restored to original set *****
 -------------------------------------------------------------------
 Center     Atomic                   Forces (Hartrees/Bohr)
 Number     Number              X              Y              Z
 -------------------------------------------------------------------
      1        7           0.020322321    0.000386453   -0.000589933
      2        6          -0.013098118   -0.000165618    0.008892895
      3        6          -0.000670225   -0.002920251   -0.004654182
      4        6           0.007365672   -0.001696288   -0.015898733
      5        8          -0.002241568   -0.000506173    0.012572543
      6        6          -0.005390609    0.000006377    0.003427438
      7        6           0.010040186   -0.001534627    0.007344489
      8        8          -0.007848242   -0.001542625    0.006461776
      9        6          -0.006806666    0.000807737   -0.010716212
     10        6          -0.004229151    0.000112629   -0.000933636
     11        6           0.020839980   -0.000026304   -0.002259767
     12        8          -0.000404014    0.000430166    0.042631502
     13       15           0.013977716   -0.046807213   -0.072496765
     14        8          -0.015611818    0.025136464    0.003234605
     15        8          -0.023106917    0.000697550    0.024556717
     16        8           0.013699640    0.020693497    0.007283842
     17        1           0.000861088    0.000982028    0.002574666
     18        1           0.000847152    0.001349160    0.002473221
     19        1           0.001043390    0.001122660   -0.000323929
     20        1          -0.005613551    0.002635659   -0.002525359
     21        1           0.002067302    0.001180134   -0.005930534
     22        1           0.000153621   -0.000201456   -0.001047815
     23        1          -0.003131473   -0.001461547   -0.002352966
     24        1          -0.003065716    0.001321589   -0.001723865
 -------------------------------------------------------------------
 Cartesian Forces:  Max     0.072496765 RMS     0.014133231

 GradGradGradGradGradGradGradGradGradGradGradGradGradGradGradGradGradGrad
 Berny optimization.
 Using GEDIIS/GDIIS optimizer.
 Internal  Forces:  Max     0.038942020 RMS     0.007581574
 Search for a local minimum.
 Step number   2 out of a maximum of  117
 All quantities printed in internal units (Hartrees-Bohrs-Radians)
 Mixed Optimization -- RFO/linear search
 Update second derivatives using D2CorX and points    1    2
 DE= -3.14D-02 DEPred=-3.29D-02 R= 9.53D-01
 SS=  1.41D+00  RLast= 3.13D-01 DXNew= 5.0454D-01 9.3904D-01
 Trust test= 9.53D-01 RLast= 3.13D-01 DXMaxT set to 5.05D-01
 ITU=  1  0
 Use linear search instead of GDIIS.
     Eigenvalues ---    0.00673   0.00681   0.01132   0.01136   0.01326
     Eigenvalues ---    0.01555   0.01641   0.01779   0.02090   0.02150
     Eigenvalues ---    0.02257   0.02307   0.02494   0.02662   0.03285
     Eigenvalues ---    0.06299   0.07300   0.07343   0.07425   0.11555
     Eigenvalues ---    0.13978   0.15818   0.16000   0.16000   0.16000
     Eigenvalues ---    0.16000   0.16050   0.17628   0.17931   0.21478
     Eigenvalues ---    0.22178   0.22627   0.23701   0.24994   0.24999
     Eigenvalues ---    0.24999   0.25000   0.25000   0.25000   0.25000
     Eigenvalues ---    0.25000   0.30980   0.31661   0.32096   0.34715
     Eigenvalues ---    0.34785   0.34837   0.34855   0.34884   0.35855
     Eigenvalues ---    0.36037   0.36661   0.41012   0.42171   0.43714
     Eigenvalues ---    0.46145   0.46508   0.49353   0.49495   0.50646
     Eigenvalues ---    0.54108   0.54289   0.59673   0.61745   0.81998
     Eigenvalues ---    0.99159
 RFO step:  Lambda=-1.54478228D-02 EMin= 6.72539507D-03
 Quartic linear search produced a step of  0.58354.
 Iteration  1 RMS(Cart)=  0.09669249 RMS(Int)=  0.00568165
 Iteration  2 RMS(Cart)=  0.00607009 RMS(Int)=  0.00128939
 Iteration  3 RMS(Cart)=  0.00003534 RMS(Int)=  0.00128917
 Iteration  4 RMS(Cart)=  0.00000005 RMS(Int)=  0.00128917
 Variable       Old X    -DE/DX   Delta X   Delta X   Delta X     New X
                                 (Linear)    (Quad)   (Total)
    R1        2.50859   0.01177   0.01300   0.01738   0.03042   2.53902
    R2        2.51247   0.00913   0.01177   0.01280   0.02460   2.53708
    R3        2.85951   0.00099   0.00676  -0.00207   0.00469   2.86420
    R4        2.64361   0.00032   0.01090  -0.00978   0.00113   2.64474
    R5        2.06614   0.00186   0.00424   0.00385   0.00809   2.07423
    R6        2.06106   0.00056   0.00113   0.00132   0.00245   2.06351
    R7        2.06258   0.00041   0.00135   0.00042   0.00178   2.06435
    R8        2.59774   0.01272   0.02054   0.01681   0.03735   2.63508
    R9        2.68787  -0.00322   0.01819  -0.02997  -0.01180   2.67607
   R10        1.82172  -0.00178  -0.00264  -0.00255  -0.00519   1.81654
   R11        2.80130  -0.00535   0.01113  -0.03355  -0.02242   2.77888
   R12        2.67510   0.00718   0.01579   0.00783   0.02357   2.69868
   R13        2.31596   0.01012   0.01449   0.00281   0.01731   2.33327
   R14        2.06490   0.00501   0.01453   0.00666   0.02120   2.08610
   R15        2.62794   0.00560   0.01271   0.00585   0.01855   2.64649
   R16        2.85795  -0.00013   0.00653  -0.00714  -0.00061   2.85734
   R17        2.04321   0.00093   0.00174   0.00215   0.00390   2.04711
   R18        2.70030  -0.01200   0.00139  -0.04517  -0.04379   2.65651
   R19        2.06842   0.00333   0.00586   0.00856   0.01442   2.08284
   R20        2.06825   0.00303   0.00452   0.00861   0.01313   2.08138
   R21        3.11528   0.03894   0.04283   0.07933   0.12216   3.23744
   R22        2.84513   0.02917   0.02877   0.02747   0.05624   2.90137
   R23        2.98375  -0.03299  -0.03409  -0.06931  -0.10341   2.88034
   R24        2.99363  -0.02527  -0.02735  -0.05169  -0.07904   2.91459
    A1        2.10139  -0.00750  -0.01879  -0.01887  -0.03746   2.06393
    A2        2.05983  -0.00512  -0.01636  -0.01341  -0.02996   2.02987
    A3        2.12402   0.00078   0.00928  -0.00486   0.00442   2.12845
    A4        2.09932   0.00434   0.00709   0.01819   0.02509   2.12441
    A5        1.92454   0.00215   0.00814   0.00707   0.01506   1.93960
    A6        1.93138   0.00353   0.01193   0.02085   0.03255   1.96393
    A7        1.90778  -0.00089  -0.00135  -0.00623  -0.00764   1.90014
    A8        1.89277  -0.00299  -0.01056  -0.01507  -0.02594   1.86682
    A9        1.89756  -0.00156  -0.00713  -0.01143  -0.01852   1.87903
   A10        1.90941  -0.00034  -0.00123   0.00426   0.00289   1.91231
   A11        2.07278   0.00123  -0.01824   0.02832   0.00972   2.08249
   A12        2.07941   0.00427   0.00350   0.01642   0.01965   2.09906
[...]
                 (A) (A) (A) (A) (A) (A) (A) (A) (A) (A) (A) (A)
                 (A) (A) (A) (A) (A) (A) (A) (A) (A) (A) (A) (A)
                 (A) (A) (A) (A) (A) (A) (A) (A) (A) (A) (A) (A)
                 (A) (A) (A) (A) (A) (A) (A) (A) (A) (A) (A) (A)
                 (A) (A) (A) (A) (A) (A) (A) (A) (A) (A) (A) (A)
                 (A) (A) (A) (A) (A) (A) (A) (A) (A) (A) (A) (A)
                 (A) (A) (A) (A) (A) (A) (A) (A) (A) (A) (A) (A)
                 (A) (A) (A) (A) (A) (A) (A) (A) (A) (A) (A) (A)
                 (A) (A) (A) (A) (A) (A) (A) (A) (A) (A) (A) (A)
                 (A) (A) (A) (A) (A) (A) (A) (A) (A) (A) (A) (A)
                 (A) (A) (A) (A) (A) (A) (A) (A) (A) (A) (A) (A)
                 (A) (A) (A) (A) (A) (A) (A) (A) (A) (A) (A) (A)
                 (A) (A) (A) (A) (A) (A) (A) (A) (A) (A) (A) (A)
                 (A) (A) (A) (A) (A) (A) (A) (A) (A) (A) (A) (A)
                 (A) (A) (A) (A) (A) (A) (A) (A) (A) (A) (A) (A)
                 (A) (A) (A) (A) (A) (A) (A) (A) (A) (A) (A) (A)
                 (A) (A) (A) (A) (A) (A) (A) (A) (A) (A) (A) (A)
                 (A) (A) (A) (A) (A) (A) (A) (A) (A) (A) (A) (A)
                 (A) (A) (A) (A) (A) (A) (A) (A) (A) (A) (A) (A)
                 (A) (A) (A) (A) (A) (A) (A) (A) (A) (A) (A) (A)
                 (A) (A)
 The electronic state is 1-A.
 Alpha  occ. eigenvalues --  -76.82326 -18.96792 -18.94189 -18.82978 -18.75293
 Alpha  occ. eigenvalues --  -18.75210 -18.75208 -14.12099 -10.07316 -10.05733
 Alpha  occ. eigenvalues --  -10.01981  -9.99991  -9.99941  -9.99129  -9.99030
 Alpha  occ. eigenvalues --   -9.97516  -6.30309  -4.46735  -4.46366  -4.46358
 Alpha  occ. eigenvalues --   -0.88859  -0.85292  -0.75157  -0.74218  -0.66760
 Alpha  occ. eigenvalues --   -0.62291  -0.60059  -0.59739  -0.59304  -0.52575
 Alpha  occ. eigenvalues --   -0.48928  -0.44928  -0.42351  -0.37856  -0.33228
 Alpha  occ. eigenvalues --   -0.32438  -0.30295  -0.26957  -0.26898  -0.24545
 Alpha  occ. eigenvalues --   -0.23618  -0.23477  -0.22024  -0.21367  -0.21179
 Alpha  occ. eigenvalues --   -0.20936  -0.19900  -0.16650  -0.16278  -0.14198
 Alpha  occ. eigenvalues --   -0.09617  -0.08938  -0.08742  -0.07648  -0.06720
 Alpha  occ. eigenvalues --   -0.05251  -0.04156  -0.00222   0.00723   0.01309
 Alpha  occ. eigenvalues --    0.01339   0.04234   0.05007   0.08001
 Alpha virt. eigenvalues --    0.10085   0.13295   0.16116   0.16817   0.17808
 Alpha virt. eigenvalues --    0.19271   0.19460   0.19619   0.20644   0.22152
 Alpha virt. eigenvalues --    0.22872   0.22956   0.23745   0.23959   0.25057
 Alpha virt. eigenvalues --    0.26075   0.26326   0.26598   0.27328   0.27348
 Alpha virt. eigenvalues --    0.27946   0.28578   0.29372   0.29420   0.29958
 Alpha virt. eigenvalues --    0.30477   0.30551   0.31526   0.32603   0.32608
 Alpha virt. eigenvalues --    0.32749   0.33191   0.34009   0.34017   0.35132
 Alpha virt. eigenvalues --    0.35451   0.36197   0.36749   0.36874   0.37620
 Alpha virt. eigenvalues --    0.38099   0.38909   0.39284   0.39721   0.40245
 Alpha virt. eigenvalues --    0.42032   0.42180   0.42445   0.42994   0.43470
 Alpha virt. eigenvalues --    0.43513   0.43894   0.44421   0.44454   0.45080
 Alpha virt. eigenvalues --    0.45826   0.46297   0.46621   0.46990   0.47974
 Alpha virt. eigenvalues --    0.48155   0.48540   0.49037   0.49342   0.49792
 Alpha virt. eigenvalues --    0.50630   0.51363   0.51620   0.52357   0.52642
 Alpha virt. eigenvalues --    0.52937   0.53447   0.53811   0.53854   0.54920
 Alpha virt. eigenvalues --    0.55405   0.55952   0.56183   0.56870   0.57358
 Alpha virt. eigenvalues --    0.57554   0.58228   0.58573   0.59971   0.60165
 Alpha virt. eigenvalues --    0.60577   0.61059   0.62351   0.62636   0.62737
 Alpha virt. eigenvalues --    0.64074   0.65263   0.66299   0.66761   0.67799
 Alpha virt. eigenvalues --    0.69360   0.70039   0.70355   0.71103   0.73622
 Alpha virt. eigenvalues --    0.73795   0.74916   0.75901   0.76783   0.78363
 Alpha virt. eigenvalues --    0.78526   0.79739   0.80131   0.81098   0.82040
 Alpha virt. eigenvalues --    0.83009   0.83644   0.83728   0.84677   0.85550
 Alpha virt. eigenvalues --    0.86261   0.89128   0.89904   0.92131   0.92576
 Alpha virt. eigenvalues --    0.94734   0.95217   0.95223   0.96966   0.98950
 Alpha virt. eigenvalues --    1.00839   1.02237   1.02656   1.04740   1.05007
 Alpha virt. eigenvalues --    1.06294   1.09967   1.10208   1.11408   1.12272
 Alpha virt. eigenvalues --    1.13698   1.15051   1.16266   1.17593   1.19044
 Alpha virt. eigenvalues --    1.19864   1.20475   1.23072   1.23138   1.23659
 Alpha virt. eigenvalues --    1.23782   1.26566   1.27332   1.27678   1.29874
 Alpha virt. eigenvalues --    1.31950   1.32454   1.33590   1.34708   1.36846
 Alpha virt. eigenvalues --    1.37955   1.39826   1.41161   1.41748   1.43783
 Alpha virt. eigenvalues --    1.44272   1.45478   1.45776   1.46023   1.46600
 Alpha virt. eigenvalues --    1.47309   1.48139   1.48857   1.48989   1.49360
 Alpha virt. eigenvalues --    1.52050   1.52427   1.54731   1.58492   1.59579
 Alpha virt. eigenvalues --    1.60285   1.60501   1.61808   1.62405   1.63421
 Alpha virt. eigenvalues --    1.68259   1.69180   1.71997   1.73239   1.73528
 Alpha virt. eigenvalues --    1.74763   1.75920   1.78127   1.80407   1.81754
 Alpha virt. eigenvalues --    1.82323   1.84016   1.86575   1.87322   1.88309
 Alpha virt. eigenvalues --    1.88907   1.90831   1.92271   1.93365   1.95053
 Alpha virt. eigenvalues --    1.97455   1.99123   1.99346   2.01200   2.02287
 Alpha virt. eigenvalues --    2.02682   2.05000   2.05863   2.07238   2.12074
 Alpha virt. eigenvalues --    2.12262   2.12477   2.13848   2.15358   2.15519
 Alpha virt. eigenvalues --    2.15727   2.18217   2.20896   2.23458   2.25387
 Alpha virt. eigenvalues --    2.27260   2.30455   2.32129   2.34458   2.36450
 Alpha virt. eigenvalues --    2.39314   2.42694   2.42770   2.49325   2.51328
 Alpha virt. eigenvalues --    2.55879   2.61020   2.61394   2.65468   2.66626
 Alpha virt. eigenvalues --    2.70226   2.71378   2.71805   2.74818   2.76400
 Alpha virt. eigenvalues --    2.78139   2.79928   2.81857   2.84690   2.85538
 Alpha virt. eigenvalues --    2.86845   2.88915   2.94202   2.94496   2.98920
 Alpha virt. eigenvalues --    3.00177   3.00740   3.02960   3.04063   3.07374
 Alpha virt. eigenvalues --    3.10711   3.13039   3.13128   3.15488   3.16171
 Alpha virt. eigenvalues --    3.17934   3.18069   3.19204   3.20109   3.20157
 Alpha virt. eigenvalues --    3.23449   3.23622   3.24108   3.26594   3.28127
 Alpha virt. eigenvalues --    3.28609   3.28870   3.30718   3.33963   3.34322
 Alpha virt. eigenvalues --    3.35109   3.35740   3.38882   3.40937   3.41605
 Alpha virt. eigenvalues --    3.44420   3.46292   3.48122   3.48491   3.49550
 Alpha virt. eigenvalues --    3.50650   3.56495   3.59058   3.64016   3.67421
 Alpha virt. eigenvalues --    3.75739   3.76143   3.80266   3.82031   3.88997
 Alpha virt. eigenvalues --    3.89929   3.93934   3.94725   4.00622   4.04348
 Alpha virt. eigenvalues --    4.06827   4.09021   4.14075   4.17128   4.18698
 Alpha virt. eigenvalues --    4.32978   4.41576   4.50388   4.58139   4.65415
 Alpha virt. eigenvalues --    4.70317   5.19674   5.21546   5.32969   5.33401
 Alpha virt. eigenvalues --    5.34357   5.36828   5.39037   5.39655   5.40469
 Alpha virt. eigenvalues --    5.41048   5.44841   5.47528   5.54607   5.57922
 Alpha virt. eigenvalues --    5.60541   5.67275   5.91007   5.95324   5.96213
 Alpha virt. eigenvalues --    7.63406  14.31830  14.36038  14.44133  23.83514
 Alpha virt. eigenvalues --   24.05992  24.09762  24.11483  24.12624  24.17856
 Alpha virt. eigenvalues --   24.22666  24.27883  35.87636  50.13582  50.18561
 Alpha virt. eigenvalues --   50.23441  50.24569  50.24909  50.29476 163.71889
          Condensed to atoms (all electrons):
              1          2          3          4          5          6
     1  N    6.931049  -0.430903  -0.620695   1.036260  -0.000371   0.182117
     2  C   -0.430903  16.991977   0.749959  -2.839730  -0.374290  -3.201801
     3  C   -0.620695   0.749959   8.400642  -0.848485   0.017735  -0.260939
     4  C    1.036260  -2.839730  -0.848485  33.645367  -0.185016 -10.784246
     5  O   -0.000371  -0.374290   0.017735  -0.185016   8.217195   0.571358
     6  C    0.182117  -3.201801  -0.260939 -10.784246   0.571358  29.522627
     7  C    0.141684  -1.406146  -0.485133   3.743130  -0.254720  -6.774686
     8  O   -0.000320   0.036714   0.001093  -0.246950  -0.017363   0.061077
     9  C   -0.289260   2.283779  -0.047545  -9.848728   0.180098   8.233870
    10  C    0.284568  -1.578510  -0.953301   1.053882  -0.022466  -3.865204
    11  C   -0.185708  -3.760738  -0.680835  -9.237715   0.033681  -7.698996
    12  O   -0.004573   0.032598   0.001094   0.098059   0.000188   0.092548
    13  P    0.001507  -0.090707  -0.005963  -0.336168   0.000043  -0.573398
    14  O   -0.000398  -0.000514  -0.000038  -0.007461   0.000003  -0.010814
    15  O    0.001273   0.003040   0.000073  -0.000899   0.000000   0.007417
    16  O   -0.000396  -0.000423  -0.000033  -0.007438   0.000003  -0.010561
    17  H    0.026193  -0.074618   0.355203   0.083551  -0.010535  -0.017919
    18  H    0.026170  -0.075467   0.355283   0.083922  -0.010482  -0.017512
    19  H   -0.010318   0.017101   0.494850  -0.033895  -0.001316  -0.070265
    20  H   -0.001317   0.036260  -0.009782  -0.238051   0.224514  -0.007472
    21  H   -0.000744  -0.011317  -0.009736  -0.004883  -0.020884  -0.803488
    22  H   -0.099755   0.048790   0.013066  -0.094355   0.000030  -0.089525
    23  H    0.004590   0.105257   0.011101   0.312416   0.001098   0.443244
    24  H    0.004584   0.106343   0.011305   0.313933   0.001089   0.448893
              7          8          9         10         11         12
     1  N    0.141684  -0.000320  -0.289260   0.284568  -0.185708  -0.004573
     2  C   -1.406146   0.036714   2.283779  -1.578510  -3.760738   0.032598
     3  C   -0.485133   0.001093  -0.047545  -0.953301  -0.680835   0.001094
     4  C    3.743130  -0.246950  -9.848728   1.053882  -9.237715   0.098059
     5  O   -0.254720  -0.017363   0.180098  -0.022466   0.033681   0.000188
     6  C   -6.774686   0.061077   8.233870  -3.865204  -7.698996   0.092548
     7  C   10.553246   0.231849  -2.936766   0.760666   2.073179  -0.011213
     8  O    0.231849   8.229625   0.097360   0.010520  -0.031715   0.000688
     9  C   -2.936766   0.097360  20.215108  -5.522478  -5.838982  -0.345029
    10  C    0.760666   0.010520  -5.522478  11.415482   4.173470   0.176975
    11  C    2.073179  -0.031715  -5.838982   4.173470  27.448012   0.131433
    12  O   -0.011213   0.000688  -0.345029   0.176975   0.131433   8.402471
    13  P    0.055557  -0.002527  -0.389141  -0.053018   1.206368  -0.166431
    14  O   -0.005849  -0.000011  -0.019024   0.002904  -0.010667   0.006150
    15  O   -0.000183  -0.000001   0.172506  -0.052217  -0.170186   0.003586
    16  O   -0.005887  -0.000011  -0.017778   0.002658  -0.012331   0.005949
    17  H    0.003457  -0.000985  -0.030108   0.001445  -0.007212  -0.000058
    18  H    0.003419  -0.000984  -0.030096   0.001264  -0.007190  -0.000057
    19  H    0.000206   0.000560  -0.016473  -0.009949  -0.022518   0.000499
    20  H   -0.003830   0.083405   0.070238  -0.011615   0.121817  -0.000936
    21  H    0.755172  -0.065505  -0.244590   0.093494   0.393082   0.001113
    22  H   -0.016254  -0.000742  -0.069613   0.446825   0.158840   0.000147
    23  H   -0.121145   0.002802   0.212213  -0.054271  -0.597420  -0.060124
    24  H   -0.122088   0.002806   0.219331  -0.058135  -0.609730  -0.059898
             13         14         15         16         17         18
     1  N    0.001507  -0.000398   0.001273  -0.000396   0.026193   0.026170
     2  C   -0.090707  -0.000514   0.003040  -0.000423  -0.074618  -0.075467
     3  C   -0.005963  -0.000038   0.000073  -0.000033   0.355203   0.355283
     4  C   -0.336168  -0.007461  -0.000899  -0.007438   0.083551   0.083922
     5  O    0.000043   0.000003   0.000000   0.000003  -0.010535  -0.010482
     6  C   -0.573398  -0.010814   0.007417  -0.010561  -0.017919  -0.017512
     7  C    0.055557  -0.005849  -0.000183  -0.005887   0.003457   0.003419
     8  O   -0.002527  -0.000011  -0.000001  -0.000011  -0.000985  -0.000984
     9  C   -0.389141  -0.019024   0.172506  -0.017778  -0.030108  -0.030096
    10  C   -0.053018   0.002904  -0.052217   0.002658   0.001445   0.001264
    11  C    1.206368  -0.010667  -0.170186  -0.012331  -0.007212  -0.007190
    12  O   -0.166431   0.006150   0.003586   0.005949  -0.000058  -0.000057
    13  P   13.836514   0.377347   0.341679   0.377433   0.000078   0.000079
    14  O    0.377347   8.547850  -0.133757  -0.161374   0.000004  -0.000002
    15  O    0.341679  -0.133757   8.459380  -0.133690   0.000001   0.000001
    16  O    0.377433  -0.161374  -0.133690   8.548252  -0.000002   0.000004
    17  H    0.000078   0.000004   0.000001  -0.000002   0.622518  -0.070949
    18  H    0.000079  -0.000002   0.000001   0.000004  -0.070949   0.622748
    19  H   -0.000968  -0.000005  -0.000013  -0.000005  -0.024299  -0.024360
    20  H    0.003991   0.000042   0.000002   0.000042  -0.001003  -0.000990
    21  H    0.024454  -0.005421   0.000782  -0.005426  -0.000618  -0.000621
    22  H    0.022003  -0.000446  -0.000369  -0.000541  -0.000398  -0.000401
    23  H   -0.137853   0.004845   0.010496   0.021848  -0.000497   0.000739
    24  H   -0.137953   0.021645   0.010394   0.004928   0.000739  -0.000497
             19         20         21         22         23         24
     1  N   -0.010318  -0.001317  -0.000744  -0.099755   0.004590   0.004584
     2  C    0.017101   0.036260  -0.011317   0.048790   0.105257   0.106343
     3  C    0.494850  -0.009782  -0.009736   0.013066   0.011101   0.011305
     4  C   -0.033895  -0.238051  -0.004883  -0.094355   0.312416   0.313933
     5  O   -0.001316   0.224514  -0.020884   0.000030   0.001098   0.001089
     6  C   -0.070265  -0.007472  -0.803488  -0.089525   0.443244   0.448893
     7  C    0.000206  -0.003830   0.755172  -0.016254  -0.121145  -0.122088
     8  O    0.000560   0.083405  -0.065505  -0.000742   0.002802   0.002806
     9  C   -0.016473   0.070238  -0.244590  -0.069613   0.212213   0.219331
    10  C   -0.009949  -0.011615   0.093494   0.446825  -0.054271  -0.058135
    11  C   -0.022518   0.121817   0.393082   0.158840  -0.597420  -0.609730
    12  O    0.000499  -0.000936   0.001113   0.000147  -0.060124  -0.059898
    13  P   -0.000968   0.003991   0.024454   0.022003  -0.137853  -0.137953
    14  O   -0.000005   0.000042  -0.005421  -0.000446   0.004845   0.021645
    15  O   -0.000013   0.000002   0.000782  -0.000369   0.010496   0.010394
    16  O   -0.000005   0.000042  -0.005426  -0.000541   0.021848   0.004928
    17  H   -0.024299  -0.001003  -0.000618  -0.000398  -0.000497   0.000739
    18  H   -0.024360  -0.000990  -0.000621  -0.000401   0.000739  -0.000497
    19  H    0.553988   0.000249   0.000810  -0.001214   0.000594   0.000597
    20  H    0.000249   0.400122   0.013468   0.000440  -0.005855  -0.005874
    21  H    0.000810   0.013468   0.745808  -0.000883  -0.035749  -0.035666
    22  H   -0.001214   0.000440  -0.000883   0.449295  -0.009556  -0.009665
    23  H    0.000594  -0.005855  -0.035749  -0.009556   0.921269  -0.179331
    24  H    0.000597  -0.005874  -0.035666  -0.009665  -0.179331   0.923690
 Mulliken atomic charges:
              1
     1  N    0.004762
     2  C   -0.566656
     3  C   -0.488918
     4  C    0.343497
     5  O   -0.349590
     6  C    0.623678
     7  C   -0.177664
     8  O   -0.391386
     9  C   -0.038890
    10  C   -0.242991
    11  C   -0.867939
    12  O   -0.305178
    13  P    0.647073
    14  O   -0.605008
    15  O   -0.519316
    16  O   -0.605220
    17  H    0.146012
    18  H    0.145978
    19  H    0.146142
    20  H    0.332137
    21  H    0.217345
    22  H    0.254280
    23  H    0.149290
    24  H    0.148560
 Sum of Mulliken atomic charges =  -2.00000
 Mulliken charges with hydrogens summed into heavy atoms:
              1
     1  N    0.004762
     2  C   -0.566656
     3  C   -0.050786
     4  C    0.343497
     5  O   -0.017453
     6  C    0.623678
     7  C    0.039681
     8  O   -0.391386
     9  C   -0.038890
    10  C    0.011289
    11  C   -0.570089
    12  O   -0.305178
    13  P    0.647073
    14  O   -0.605008
    15  O   -0.519316
    16  O   -0.605220
 Sum of Mulliken charges with hydrogens summed into heavy atoms =  -2.00000
 Electronic spatial extent (au):  <R**2>=           5360.0759
 Charge=             -2.0000 electrons
 Dipole moment (field-independent basis, Debye):
    X=             20.6214    Y=              0.4189    Z=             -0.0039  Tot=             20.6256
 Quadrupole moment (field-independent basis, Debye-Ang):
   XX=           -246.8789   YY=           -136.3805   ZZ=           -118.5091
   XY=             -7.9042   XZ=              0.0031   YZ=             -0.0003
 Traceless Quadrupole moment (field-independent basis, Debye-Ang):
   XX=            -79.6227   YY=             30.8757   ZZ=             48.7470
   XY=             -7.9042   XZ=              0.0031   YZ=             -0.0003
 Octapole moment (field-independent basis, Debye-Ang**2):
  XXX=            347.9953  YYY=             -1.0333  ZZZ=             -0.0548  XYY=             -4.0095
  XXY=             11.0573  XXZ=              0.0152  XZZ=             46.6621  YZZ=             -5.2872
  YYZ=              0.0192  XYZ=             -0.0335
 Hexadecapole moment (field-independent basis, Debye-Ang**3):
 XXXX=          -8010.9563 YYYY=          -1557.0332 ZZZZ=           -304.6390 XXXY=           -150.5637
 XXXZ=             -0.3708 YYYX=            -44.8582 YYYZ=              0.0185 ZZZX=              0.2067
 ZZZY=             -0.0170 XXYY=          -1499.4633 XXZZ=          -1171.5438 YYZZ=           -277.9012
 XXYZ=              0.1474 YYXZ=             -0.0596 ZZXY=             55.1639
 N-N= 1.205656215291D+03 E-N=-5.172817229226D+03  KE= 1.154031598129D+03
 1\1\GINC-CPU-2-2\FOpt\RB3LYP\6-311++G(d,p)\C8H8N1O6P1(2-)\SHIJIZ\02-Ap
 r-2023\0\\#B3LYP/6-311++G(d,p) Opt\\PLP opt\\-2,1\N,2.1241405639,-0.05
 16736488,1.996417376\C,1.3475057495,-0.0641369654,3.0897993277\C,2.016
 0400588,-0.0861325165,4.4412739468\C,-0.045412531,-0.0570666952,2.9877
 826794\O,-0.7881247204,-0.0703877031,4.1292281299\C,-0.6598143955,-0.0
 363261246,1.7077949839\C,-2.102627516,-0.0290671533,1.6094861808\O,-2.
 8724104584,-0.0399554695,2.5968645174\C,0.1769280534,-0.0233491748,0.5
 56675918\C,1.5551755466,-0.0320725962,0.780044702\C,-0.368633518,-0.00
 13290311,-0.8507002881\O,0.6501028194,0.008752628,-1.7927583619\P,0.04
 32209062,0.031934925,-3.46772584\O,-0.7843184953,1.3283488978,-3.49415
 34486\O,1.3379122411,0.0382344537,-4.2738539062\O,-0.7920488217,-1.258
 5186973,-3.5268680399\H,1.7352087141,0.7847674586,5.0449889204\H,1.729
 2666866,-0.9723577088,5.0193637269\H,3.0976432246,-0.0877318933,4.2969
 549824\H,-1.7334163129,-0.0622170012,3.8309308063\H,-2.5335803152,-0.0
 129425735,0.6004447619\H,2.2067096945,-0.0223903348,-0.0846313331\H,-1
 .0255978408,-0.8788254397,-1.0038224852\H,-1.0198693334,0.8844423641,-
 0.9785372568\\Version=EM64L-G09RevC.01\State=1-A\HF=-1157.4660583\RMSD
 =5.094e-09\RMSF=1.010e-05\Dipole=-0.0217693,-0.1110607,8.1139632\Quadr
 upole=23.13712,36.2241373,-59.3612573,-0.0078789,4.4253636,1.3072611\P
 G=C01 [X(C8H8N1O6P1)]\\@


 THE REASON MAN'S BEST FRIEND IS A DOG IS BECAUSE
 HE WAGS HIS TAIL INSTEAD OF HIS TONGUE.
 Job cpu time:  3 days  5 hours 17 minutes 35.5 seconds.
 File lengths (MBytes):  RWF=     83 Int=      0 D2E=      0 Chk=     12 Scr=      1
 Normal termination of Gaussian 09 at Sun Apr  2 23:17:43 2023.
