 Entering Gaussian System, Link 0=g09
 Initial command:
 /home/gaussian/g09/l1.exe /state/partition1/ESP/Gau-353266.inp -scrdir=/state/partition1/ESP/
 Entering Link 1 = /home/gaussian/g09/l1.exe PID=    353267.
  
 Copyright (c) 1988,1990,1992,1993,1995,1998,2003,2009,2011,
            Gaussian, Inc.  All Rights Reserved.
  
 This is part of the Gaussian(R) 09 program.  It is based on
 the Gaussian(R) 03 system (copyright 2003, Gaussian, Inc.),
 the Gaussian(R) 98 system (copyright 1998, Gaussian, Inc.),
 the Gaussian(R) 94 system (copyright 1995, Gaussian, Inc.),
 the Gaussian 92(TM) system (copyright 1992, Gaussian, Inc.),
 the Gaussian 90(TM) system (copyright 1990, Gaussian, Inc.),
 the Gaussian 88(TM) system (copyright 1988, Gaussian, Inc.),
 the Gaussian 86(TM) system (copyright 1986, Carnegie Mellon
 University), and the Gaussian 82(TM) system (copyright 1983,
 Carnegie Mellon University). Gaussian is a federally registered
 trademark of Gaussian, Inc.
  
 This software contains proprietary and confidential information,
 including trade secrets, belonging to Gaussian, Inc.
  
 This software is provided under written license and may be
 used, copied, transmitted, or stored only in accord with that
 written license.
  
 The following legend is applicable only to US Government
 contracts under FAR:
  
                    RESTRICTED RIGHTS LEGEND
  
 Use, reproduction and disclosure by the US Government is
 subject to restrictions as set forth in subparagraphs (a)
 and (c) of the Commercial Computer Software - Restricted
 Rights clause in FAR 52.227-19.
  
 Gaussian, Inc.
 340 Quinnipiac St., Bldg. 40, Wallingford CT 06492
  
  
 ---------------------------------------------------------------
 Warning -- This program may not be used in any manner that
 competes with the business of Gaussian, Inc. or will provide
 assistance to any competitor of Gaussian, Inc.  The licensee
 of this program is prohibited from giving any competitor of
 Gaussian, Inc. access to this program.  By using this program,
 the user acknowledges that Gaussian, Inc. is engaged in the
 business of creating and licensing software in the field of
 computational chemistry and represents and warrants to the
 licensee that it is not a competitor of Gaussian, Inc. and that
 it will not use this program in any manner prohibited above.
 ---------------------------------------------------------------
  

 Cite this work as:
 Gaussian 09, Revision C.01,
 M. J. Frisch, G. W. Trucks, H. B. Schlegel, G. E. Scuseria, 
 M. A. Robb, J. R. Cheeseman, G. Scalmani, V. Barone, B. Mennucci, 
 G. A. Petersson, H. Nakatsuji, M. Caricato, X. Li, H. P. Hratchian, 
 A. F. Izmaylov, J. Bloino, G. Zheng, J. L. Sonnenberg, M. Hada, 
 M. Ehara, K. Toyota, R. Fukuda, J. Hasegawa, M. Ishida, T. Nakajima, 
 Y. Honda, O. Kitao, H. Nakai, T. Vreven, J. A. Montgomery, Jr., 
 J. E. Peralta, F. Ogliaro, M. Bearpark, J. J. Heyd, E. Brothers, 
 K. N. Kudin, V. N. Staroverov, T. Keith, R. Kobayashi, J. Normand, 
 K. Raghavachari, A. Rendell, J. C. Burant, S. S. Iyengar, J. Tomasi, 
 M. Cossi, N. Rega, J. M. Millam, M. Klene, J. E. Knox, J. B. Cross, 
 V. Bakken, C. Adamo, J. Jaramillo, R. Gomperts, R. E. Stratmann, 
 O. Yazyev, A. J. Austin, R. Cammi, C. Pomelli, J. W. Ochterski, 
 R. L. Martin, K. Morokuma, V. G. Zakrzewski, G. A. Voth, 
 P. Salvador, J. J. Dannenberg, S. Dapprich, A. D. Daniels, 
 O. Farkas, J. B. Foresman, J. V. Ortiz, J. Cioslowski, 
 and D. J. Fox, Gaussian, Inc., Wallingford CT, 2010.
 
 ******************************************
 Gaussian 09:  EM64L-G09RevC.01 23-Sep-2011
                 3-Apr-2023 
 ******************************************
 %OldChk=PLP_ideal_opt.chk
 %Chk=PLP_ideal_opt_esp.chk
 %Mem=64GB
 %NProc=64
 Will use up to   64 processors via shared memory.
 Copying data from "PLP_ideal_opt.chk" to current chk file "PLP_ideal_opt_esp.chk".
 ----------------------------------------------------------------------
 #MP2/aug-cc-pVTZ Geom=Check SCF=Tight Pop=MK IOp(6/33=2,6/42=6,6/43=20
 ) Guess=Read Density=Current
 ----------------------------------------------------------------------
 1/29=2,30=1,38=1/1;
 2/12=2,40=1/2;
 3/5=16,6=1,7=10,11=9,14=-4,16=1,25=1,30=1,71=1,116=-2/1,2,3;
 4/5=1/1;
 5/5=2,32=2,38=6/2;
 8/6=4,10=1/1;
 9/15=1,16=-3/6;
 10/5=1,13=10/2;
 6/7=2,8=2,9=2,10=2,15=8,20=1,22=-1,33=2,42=6,43=20/1,2;
 99/5=1,9=1/99;
 -------
 PLP esp
 -------
 Structure from the checkpoint file:  PLP_ideal_opt_esp.chk
 Charge = -2 Multiplicity = 1
 Redundant internal coordinates found in file.
 N,0,2.1241405639,-0.0516736488,1.996417376
 C,0,1.3475057495,-0.0641369654,3.0897993277
 C,0,2.0160400588,-0.0861325165,4.4412739468
 C,0,-0.045412531,-0.0570666952,2.9877826794
 O,0,-0.7881247204,-0.0703877031,4.1292281299
 C,0,-0.6598143955,-0.0363261246,1.7077949839
 C,0,-2.102627516,-0.0290671533,1.6094861808
 O,0,-2.8724104584,-0.0399554695,2.5968645174
 C,0,0.1769280534,-0.0233491748,0.556675918
 C,0,1.5551755466,-0.0320725962,0.780044702
 C,0,-0.368633518,-0.0013290311,-0.8507002881
 O,0,0.6501028194,0.008752628,-1.7927583619
 P,0,0.0432209062,0.031934925,-3.46772584
 O,0,-0.7843184953,1.3283488978,-3.4941534486
 O,0,1.3379122411,0.0382344537,-4.2738539062
 O,0,-0.7920488217,-1.2585186973,-3.5268680399
 H,0,1.7352087141,0.7847674586,5.0449889204
 H,0,1.7292666866,-0.9723577088,5.0193637269
 H,0,3.0976432246,-0.0877318933,4.2969549824
 H,0,-1.7334163129,-0.0622170012,3.8309308063
 H,0,-2.5335803152,-0.0129425735,0.6004447619
 H,0,2.2067096945,-0.0223903348,-0.0846313331
 H,0,-1.0255978408,-0.8788254397,-1.0038224852
 H,0,-1.0198693334,0.8844423641,-0.9785372568
 Recover connectivity data from disk.
                          Input orientation:                          
 ---------------------------------------------------------------------
 Center     Atomic      Atomic             Coordinates (Angstroms)
 Number     Number       Type             X           Y           Z
 ---------------------------------------------------------------------
      1          7           0        2.124141   -0.051674    1.996417
      2          6           0        1.347506   -0.064137    3.089799
      3          6           0        2.016040   -0.086133    4.441274
      4          6           0       -0.045413   -0.057067    2.987783
      5          8           0       -0.788125   -0.070388    4.129228
      6          6           0       -0.659814   -0.036326    1.707795
      7          6           0       -2.102628   -0.029067    1.609486
      8          8           0       -2.872410   -0.039955    2.596865
      9          6           0        0.176928   -0.023349    0.556676
     10          6           0        1.555176   -0.032073    0.780045
     11          6           0       -0.368634   -0.001329   -0.850700
     12          8           0        0.650103    0.008753   -1.792758
     13         15           0        0.043221    0.031935   -3.467726
     14          8           0       -0.784318    1.328349   -3.494153
     15          8           0        1.337912    0.038234   -4.273854
     16          8           0       -0.792049   -1.258519   -3.526868
     17          1           0        1.735209    0.784767    5.044989
     18          1           0        1.729267   -0.972358    5.019364
     19          1           0        3.097643   -0.087732    4.296955
     20          1           0       -1.733416   -0.062217    3.830931
     21          1           0       -2.533580   -0.012943    0.600445
     22          1           0        2.206710   -0.022390   -0.084631
     23          1           0       -1.025598   -0.878825   -1.003822
     24          1           0       -1.019869    0.884442   -0.978537
 ---------------------------------------------------------------------
                    Distance matrix (angstroms):
                    1          2          3          4          5
     1  N    0.000000
     2  C    1.341194   0.000000
     3  C    2.447488   1.507947   0.000000
     4  C    2.385329   1.396667   2.522512   0.000000
     5  O    3.609781   2.375157   2.821517   1.361872   0.000000
     6  C    2.798918   2.437220   3.825518   1.419961   2.425070
     7  C    4.244502   3.754461   4.998570   2.476412   2.842310
     8  O    5.032514   4.248678   5.225029   2.853949   2.587143
     9  C    2.421837   2.790812   4.298416   2.441486   3.700901
    10  C    1.343007   2.319293   3.690517   2.727016   4.087732
    11  C    3.784513   4.298443   5.805071   3.852471   4.998043
    12  O    4.066238   4.932652   6.382628   4.831319   6.094644
    13  P    5.847570   6.686668   8.152192   6.456730   7.642991
    14  O    6.364744   7.059187   8.533099   6.669397   7.750640
    15  O    6.320011   7.364371   8.742355   7.392837   8.668542
    16  O    6.361393   7.055815   8.529428   6.666455   7.747740
    17  H    3.185073   2.166499   1.096269   2.848051   2.817289
    18  H    3.184618   2.166524   1.096276   2.848608   2.818360
    19  H    2.498296   2.126209   1.091190   3.404948   3.889425
    20  H    4.271568   3.168811   3.798883   1.886871   0.991274
    21  H    4.862572   4.611110   5.954525   3.448523   3.937287
    22  H    2.082892   3.288918   4.530368   3.809591   5.169908
    23  H    4.427920   4.801362   6.287209   4.191535   5.201747
    24  H    4.428484   4.801628   6.287536   4.191384   5.201411
                    6          7          8          9         10
     6  C    0.000000
     7  C    1.446177   0.000000
     8  O    2.384542   1.252038   0.000000
     9  C    1.423159   2.510939   3.668939   0.000000
    10  C    2.401441   3.750667   4.785856   1.396258   0.000000
    11  C    2.575249   3.009987   4.260997   1.509579   2.522165
    12  O    3.737886   4.376554   5.628433   2.396824   2.727662
    13  P    5.223498   5.512392   6.729438   4.027002   4.509286
    14  O    5.379415   5.443129   6.582772   4.377248   5.058928
    15  O    6.306869   6.815830   8.058517   4.968470   5.059055
    16  O    5.377075   5.441627   6.581254   4.374916   5.055999
    17  H    4.188937   5.214786   5.282389   4.819361   4.346192
    18  H    4.189314   5.215407   5.283305   4.819331   4.345834
    19  H    4.563429   5.853951   6.207587   4.745989   3.840698
    20  H    2.379285   2.252162   1.679501   3.790999   4.485939
    21  H    2.176642   1.097335   2.025149   2.710882   4.092743
    22  H    3.380820   4.630385   5.743535   2.128683   1.082707
    23  H    2.862948   2.951519   4.132719   2.147804   3.249548
    24  H    2.862488   2.950378   4.131576   2.147857   3.250149
                   11         12         13         14         15
    11  C    0.000000
    12  O    1.387587   0.000000
    13  P    2.649444   1.781673   0.000000
    14  O    2.988090   2.587208   1.538249   0.000000
    15  O    3.825159   2.574837   1.525158   2.603112   0.000000
    16  O    2.986918   2.587067   1.538325   2.587086   2.603131
    17  H    6.308982   6.966666   8.711825   8.919667   9.357136
    18  H    6.308862   6.966504   8.711030   9.170133   9.356193
    19  H    6.206520   6.563869   8.344704   8.819086   8.750502
    20  H    4.876885   6.108361   7.512369   7.516071   8.667796
    21  H    2.606329   3.982930   4.815800   4.650238   6.224939
    22  H    2.686950   2.311210   4.016088   4.732398   4.278793
    23  H    1.106819   2.053823   2.835962   3.336403   4.137667
    24  H    1.106816   2.053922   2.837779   2.565319   4.139361
                   16         17         18         19         20
    16  O    0.000000
    17  H    9.167267   0.000000
    18  H    8.914987   1.757322   0.000000
    19  H    8.815478   1.782425   1.782384   0.000000
    20  H    7.513622   3.771297   3.772387   4.853552   0.000000
    21  H    4.649635   6.213926   6.214434   6.736502   3.328473
    22  H    4.729647   5.214098   5.213555   4.471726   5.554980
    23  H    2.562122   6.854029   6.623956   6.762040   4.954059
    24  H    3.337390   6.624444   6.854216   6.762385   4.953413
                   21         22         23         24
    21  H    0.000000
    22  H    4.789548   0.000000
    23  H    2.365890   3.467882   0.000000
    24  H    2.364277   3.468750   1.763458   0.000000
 Stoichiometry    C8H8NO6P(2-)
 Framework group  C1[X(C8H8NO6P)]
 Deg. of freedom    66
 Full point group                 C1      NOp   1
 Largest Abelian subgroup         C1      NOp   1
 Largest concise Abelian subgroup C1      NOp   1
                         Standard orientation:                         
 ---------------------------------------------------------------------
 Center     Atomic      Atomic             Coordinates (Angstroms)
 Number     Number       Type             X           Y           Z
 ---------------------------------------------------------------------
      1          7           0        1.924440   -2.062799   -0.000411
      2          6           0        3.004030   -1.267007    0.000056
      3          6           0        4.367254   -1.911621    0.000536
      4          6           0        2.877390    0.123907    0.000123
      5          8           0        4.005642    0.886628    0.000641
      6          6           0        1.586607    0.715656   -0.000318
      7          6           0        1.462791    2.156523   -0.000286
      8          8           0        2.436503    2.943596    0.000050
      9          6           0        0.450346   -0.141252   -0.000744
     10          6           0        0.698072   -1.515358   -0.000783
     11          6           0       -0.966598    0.379421   -0.000978
     12          8           0       -1.890603   -0.655767   -0.002159
     13         15           0       -3.576167   -0.078510    0.000413
     14          8           0       -3.635268    0.753431   -1.292100
     15          8           0       -4.359359   -1.387219   -0.000008
     16          8           0       -3.632006    0.750595    1.294982
     17          1           0        4.953711   -1.616799   -0.877503
     18          1           0        4.952512   -1.618094    0.879818
     19          1           0        4.242058   -2.995605   -0.000302
     20          1           0        3.690644    1.826522    0.000495
     21          1           0        0.446183    2.569626   -0.000627
     22          1           0       -0.155036   -2.182037   -0.001132
     23          1           0       -1.119014    1.030183    0.881251
     24          1           0       -1.118244    1.031709   -0.882207
 ---------------------------------------------------------------------
 Rotational constants (GHZ):      0.9927457      0.2261713      0.1921397
 Standard basis: Aug-CC-pVTZ (5D, 7F)
 There are   924 symmetry adapted basis functions of A   symmetry.
 Integral buffers will be    131072 words long.
 Raffenetti 1 integral format.
 Two-electron integral symmetry is turned on.
   924 basis functions,  1411 primitive gaussians,  1084 cartesian basis functions
    64 alpha electrons       64 beta electrons
       nuclear repulsion energy      1205.6562152907 Hartrees.
 NAtoms=   24 NActive=   24 NUniq=   24 SFac= 1.00D+00 NAtFMM=   60 NAOKFM=F Big=F
 One-electron integrals computed using PRISM.
 NBasis=   924 RedAO= T  NBF=   924
 NBsUse=   923 1.00D-06 NBFU=   923
 Initial guess read from the checkpoint file:  PLP_ideal_opt_esp.chk
 B after Tr=     0.000000    0.000000    0.000000
         Rot=    1.000000    0.000000    0.000000    0.000000 Ang=   0.00 deg.
 Initial guess orbital symmetries:
       Occupied  (A) (A) (A) (A) (A) (A) (A) (A) (A) (A) (A) (A)
                 (A) (A) (A) (A) (A) (A) (A) (A) (A) (A) (A) (A)
                 (A) (A) (A) (A) (A) (A) (A) (A) (A) (A) (A) (A)
                 (A) (A) (A) (A) (A) (A) (A) (A) (A) (A) (A) (A)
                 (A) (A) (A) (A) (A) (A) (A) (A) (A) (A) (A) (A)
                 (A) (A) (A) (A)
       Virtual   (A) (A) (A) (A) (A) (A) (A) (A) (A) (A) (A) (A)
                 (A) (A) (A) (A) (A) (A) (A) (A) (A) (A) (A) (A)
                 (A) (A) (A) (A) (A) (A) (A) (A) (A) (A) (A) (A)
                 (A) (A) (A) (A) (A) (A) (A) (A) (A) (A) (A) (A)
                 (A) (A) (A) (A) (A) (A) (A) (A) (A) (A) (A) (A)
                 (A) (A) (A) (A) (A) (A) (A) (A) (A) (A) (A) (A)
                 (A) (A) (A) (A) (A) (A) (A) (A) (A) (A) (A) (A)
                 (A) (A) (A) (A) (A) (A) (A) (A) (A) (A) (A) (A)
                 (A) (A) (A) (A) (A) (A) (A) (A) (A) (A) (A) (A)
                 (A) (A) (A) (A) (A) (A) (A) (A) (A) (A) (A) (A)
                 (A) (A) (A) (A) (A) (A) (A) (A) (A) (A) (A) (A)
                 (A) (A) (A) (A) (A) (A) (A) (A) (A) (A) (A) (A)
                 (A) (A) (A) (A) (A) (A) (A) (A) (A) (A) (A) (A)
                 (A) (A) (A) (A) (A) (A) (A) (A) (A) (A) (A) (A)
                 (A) (A) (A) (A) (A) (A) (A) (A) (A) (A) (A) (A)
                 (A) (A) (A) (A) (A) (A) (A) (A) (A) (A) (A) (A)
                 (A) (A) (A) (A) (A) (A) (A) (A) (A) (A) (A) (A)
                 (A) (A) (A) (A) (A) (A) (A) (A) (A) (A) (A) (A)
                 (A) (A) (A) (A) (A) (A) (A) (A) (A) (A) (A) (A)
                 (A) (A) (A) (A) (A) (A) (A) (A) (A) (A) (A) (A)
                 (A) (A) (A) (A) (A) (A) (A) (A) (A) (A) (A) (A)
                 (A) (A) (A) (A) (A) (A) (A) (A) (A) (A) (A) (A)
                 (A) (A) (A) (A) (A) (A) (A) (A) (A) (A) (A) (A)
                 (A) (A) (A) (A) (A) (A) (A) (A) (A) (A) (A) (A)
                 (A) (A) (A) (A) (A) (A) (A) (A) (A) (A) (A) (A)
                 (A) (A) (A) (A) (A) (A) (A) (A) (A) (A) (A) (A)
                 (A) (A) (A) (A) (A) (A) (A) (A) (A) (A) (A) (A)
                 (A) (A) (A) (A) (A) (A) (A) (A) (A) (A) (A) (A)
                 (A) (A) (A) (A) (A) (A) (A) (A) (A) (A) (A) (A)
                 (A) (A) (A) (A) (A) (A) (A) (A) (A) (A) (A) (A)
                 (A) (A) (A) (A) (A) (A) (A) (A) (A) (A) (A) (A)
                 (A) (A) (A) (A) (A) (A) (A) (A) (A) (A) (A) (A)
                 (A) (A) (A) (A) (A) (A) (A) (A) (A) (A) (A) (A)
                 (A) (A) (A) (A) (A) (A) (A) (A) (A) (A) (A) (A)
                 (A) (A) (A) (A) (A) (A) (A) (A) (A) (A) (A) (A)
                 (A) (A) (A) (A) (A) (A) (A) (A) (A) (A) (A) (A)
                 (A) (A) (A) (A) (A) (A) (A) (A) (A) (A) (A) (A)
                 (A) (A) (A) (A) (A) (A) (A) (A) (A) (A) (A) (A)
                 (A) (A) (A) (A) (A) (A) (A) (A) (A) (A) (A) (A)
                 (A) (A) (A) (A) (A) (A) (A) (A) (A) (A) (A) (A)
                 (A) (A) (A) (A) (A) (A) (A) (A) (A) (A) (A) (A)
                 (A) (A) (A) (A) (A) (A) (A) (A) (A) (A) (A) (A)
                 (A) (A) (A) (A) (A) (A) (A) (A) (A) (A) (A) (A)
                 (A) (A) (A) (A) (A) (A) (A) (A) (A) (A) (A) (A)
                 (A) (A) (A) (A) (A) (A) (A) (A) (A) (A) (A) (A)
                 (A) (A) (A) (A) (A) (A) (A) (A) (A) (A) (A) (A)
                 (A) (A) (A) (A) (A) (A) (A) (A) (A) (A) (A) (A)
                 (A) (A) (A) (A) (A) (A) (A) (A) (A) (A) (A) (A)
                 (A) (A) (A) (A) (A) (A) (A) (A) (A) (A) (A) (A)
                 (A) (A) (A) (A) (A) (A) (A) (A) (A) (A) (A) (A)
                 (A) (A) (A) (A) (A) (A) (A) (A) (A) (A) (A) (A)
                 (A) (A) (A) (A) (A) (A) (A) (A) (A) (A) (A) (A)
                 (A) (A) (A) (A) (A) (A) (A) (A) (A) (A) (A) (A)
                 (A) (A) (A) (A) (A) (A) (A) (A) (A) (A) (A) (A)
                 (A) (A) (A) (A) (A) (A) (A) (A) (A) (A) (A) (A)
                 (A) (A) (A) (A) (A) (A) (A) (A) (A) (A) (A) (A)
                 (A) (A) (A) (A) (A) (A) (A) (A) (A) (A) (A) (A)
                 (A) (A) (A) (A) (A) (A) (A) (A) (A) (A) (A) (A)
                 (A) (A) (A) (A) (A) (A) (A) (A) (A) (A) (A) (A)
                 (A) (A) (A) (A) (A) (A) (A) (A) (A) (A) (A) (A)
                 (A) (A) (A) (A) (A) (A) (A) (A) (A) (A) (A) (A)
                 (A) (A) (A) (A) (A) (A) (A) (A) (A) (A) (A) (A)
                 (A) (A) (A) (A) (A) (A) (A) (A) (A) (A) (A) (A)
                 (A) (A) (A) (A) (A) (A) (A) (A) (A) (A) (A) (A)
                 (A) (A) (A) (A) (A) (A) (A) (A) (A) (A) (A) (A)
                 (A) (A) (A) (A) (A) (A) (A) (A) (A) (A) (A) (A)
                 (A) (A) (A) (A) (A) (A) (A) (A) (A) (A) (A) (A)
                 (A) (A) (A) (A) (A) (A) (A) (A) (A) (A) (A) (A)
                 (A) (A) (A) (A) (A) (A) (A) (A) (A) (A) (A) (A)
                 (A) (A) (A) (A) (A) (A) (A) (A) (A) (A) (A) (A)
                 (A) (A) (A) (A) (A) (A) (A) (A) (A) (A) (A) (A)
                 (A) (A) (A) (A) (A) (A) (A)
 Requested convergence on RMS density matrix=1.00D-08 within 128 cycles.
 Requested convergence on MAX density matrix=1.00D-06.
 Requested convergence on             energy=1.00D-06.
 No special actions if energy rises.
 Restarting incremental Fock formation.
 SCF Done:  E(RHF) =  -1152.32092434     A.U. after   20 cycles
             Convg  =    0.5210D-08             -V/T =  2.0014
 ExpMin= 2.53D-02 ExpMax= 3.12D+05 ExpMxC= 9.87D+02 IAcc=3 IRadAn=         5 AccDes= 0.00D+00
 HarFok:  IExCor=  205 AccDes= 0.00D+00 IRadAn=         5 IDoV=-2
 ScaDFX=  1.000000  1.000000  1.000000  1.000000
 DSYEVD returned Info=          93 IAlg= 4 N=    46 NDim=    46 NE2=   171749234 trying DSYEV.
 DSYEVD returned Info=          93 IAlg= 4 N=    46 NDim=    46 NE2=   171749234 trying DSYEV.
 DSYEVD returned Info=          93 IAlg= 4 N=    46 NDim=    46 NE2=   171749234 trying DSYEV.
 DSYEVD returned Info=          93 IAlg= 4 N=    46 NDim=    46 NE2=   171749234 trying DSYEV.
 Range of M.O.s used for correlation:    21   923
 NBasis=   924 NAE=    64 NBE=    64 NFC=    20 NFV=     0
 NROrb=    903 NOA=    44 NOB=    44 NVA=   859 NVB=   859

 **** Warning!!: The largest alpha MO coefficient is  0.13839994D+03

 Disk-based method using ON**2 memory for 44 occupieds at a time.
 Estimated scratch disk usage=102762581204 words.
 Actual    scratch disk usage= 94369540308 words.
 JobTyp=1 Pass  1:  I=  21 to  64 NPSUse= 64 ParTrn=T ParDer=T DoDerP=T.
 Spin components of T(2) and E(2):
     alpha-alpha T2 =       0.1303881117D+00 E2=     -0.4128707759D+00
     alpha-beta  T2 =       0.6639251724D+00 E2=     -0.2314810695D+01
     beta-beta   T2 =       0.1303881117D+00 E2=     -0.4128707759D+00
 ANorm=    0.1387336079D+01
 E2 =    -0.3140552247D+01 EUMP2 =    -0.11554614765818D+04
          Differentiating once with respect to electric field.
                with respect to dipole field.
          Electric field/nuclear overlap derivatives assumed to be zero.
          There are     1 degrees of freedom in the 1st order CPHF.  IDoFFX=0.
 LinEq1:  Iter=  0 NonCon=     1 RMS=2.22D-03 Max=1.01D-01
 AX will form     1 AO Fock derivatives at one time.
 LinEq1:  Iter=  1 NonCon=     1 RMS=5.28D-04 Max=1.92D-02
 LinEq1:  Iter=  2 NonCon=     1 RMS=2.37D-04 Max=1.31D-02
 LinEq1:  Iter=  3 NonCon=     1 RMS=1.07D-04 Max=5.31D-03
 LinEq1:  Iter=  4 NonCon=     1 RMS=4.46D-05 Max=2.66D-03
 LinEq1:  Iter=  5 NonCon=     1 RMS=2.03D-05 Max=1.34D-03
 LinEq1:  Iter=  6 NonCon=     1 RMS=7.97D-06 Max=2.85D-04
 LinEq1:  Iter=  7 NonCon=     1 RMS=2.03D-06 Max=7.36D-05
 LinEq1:  Iter=  8 NonCon=     1 RMS=9.39D-07 Max=3.08D-05
 LinEq1:  Iter=  9 NonCon=     1 RMS=2.80D-07 Max=1.12D-05
 LinEq1:  Iter= 10 NonCon=     1 RMS=8.59D-08 Max=3.00D-06
 LinEq1:  Iter= 11 NonCon=     1 RMS=3.95D-08 Max=2.45D-06
 LinEq1:  Iter= 12 NonCon=     1 RMS=1.31D-08 Max=7.62D-07
 LinEq1:  Iter= 13 NonCon=     1 RMS=5.65D-09 Max=2.86D-07
 LinEq1:  Iter= 14 NonCon=     1 RMS=2.16D-09 Max=1.18D-07
 LinEq1:  Iter= 15 NonCon=     1 RMS=8.13D-10 Max=3.49D-08
 LinEq1:  Iter= 16 NonCon=     1 RMS=3.15D-10 Max=1.20D-08
 LinEq1:  Iter= 17 NonCon=     1 RMS=1.08D-10 Max=3.79D-09
 LinEq1:  Iter= 18 NonCon=     1 RMS=3.97D-11 Max=1.13D-09
 LinEq1:  Iter= 19 NonCon=     0 RMS=1.69D-11 Max=7.30D-10
 Linear equations converged to 1.000D-10 1.000D-09 after    19 iterations.
 End of Minotr Frequency-dependent properties file   721 does not exist.
 End of Minotr Frequency-dependent properties file   722 does not exist.

 **********************************************************************

            Population analysis using the MP2 density.

 **********************************************************************

 Orbital symmetries:
 BldTbl:  Degeneracy threshold= 1.00D-02
       Occupied  (A) (A) (A) (A) (A) (A) (A) (A) (A) (A) (A) (A)
                 (A) (A) (A) (A) (A) (A) (A) (A) (A) (A) (A) (A)
                 (A) (A) (A) (A) (A) (A) (A) (A) (A) (A) (A) (A)
                 (A) (A) (A) (A) (A) (A) (A) (A) (A) (A) (A) (A)
                 (A) (A) (A) (A) (A) (A) (A) (A) (A) (A) (A) (A)
                 (A) (A) (A) (A)
       Virtual   (A) (A) (A) (A) (A) (A) (A) (A) (A) (A) (A) (A)
                 (A) (A) (A) (A) (A) (A) (A) (A) (A) (A) (A) (A)
                 (A) (A) (A) (A) (A) (A) (A) (A) (A) (A) (A) (A)
                 (A) (A) (A) (A) (A) (A) (A) (A) (A) (A) (A) (A)
                 (A) (A) (A) (A) (A) (A) (A) (A) (A) (A) (A) (A)
                 (A) (A) (A) (A) (A) (A) (A) (A) (A) (A) (A) (A)
                 (A) (A) (A) (A) (A) (A) (A) (A) (A) (A) (A) (A)
                 (A) (A) (A) (A) (A) (A) (A) (A) (A) (A) (A) (A)
                 (A) (A) (A) (A) (A) (A) (A) (A) (A) (A) (A) (A)
                 (A) (A) (A) (A) (A) (A) (A) (A) (A) (A) (A) (A)
                 (A) (A) (A) (A) (A) (A) (A) (A) (A) (A) (A) (A)
                 (A) (A) (A) (A) (A) (A) (A) (A) (A) (A) (A) (A)
                 (A) (A) (A) (A) (A) (A) (A) (A) (A) (A) (A) (A)
                 (A) (A) (A) (A) (A) (A) (A) (A) (A) (A) (A) (A)
                 (A) (A) (A) (A) (A) (A) (A) (A) (A) (A) (A) (A)
                 (A) (A) (A) (A) (A) (A) (A) (A) (A) (A) (A) (A)
                 (A) (A) (A) (A) (A) (A) (A) (A) (A) (A) (A) (A)
                 (A) (A) (A) (A) (A) (A) (A) (A) (A) (A) (A) (A)
                 (A) (A) (A) (A) (A) (A) (A) (A) (A) (A) (A) (A)
                 (A) (A) (A) (A) (A) (A) (A) (A) (A) (A) (A) (A)
                 (A) (A) (A) (A) (A) (A) (A) (A) (A) (A) (A) (A)
                 (A) (A) (A) (A) (A) (A) (A) (A) (A) (A) (A) (A)
                 (A) (A) (A) (A) (A) (A) (A) (A) (A) (A) (A) (A)
                 (A) (A) (A) (A) (A) (A) (A) (A) (A) (A) (A) (A)
                 (A) (A) (A) (A) (A) (A) (A) (A) (A) (A) (A) (A)
                 (A) (A) (A) (A) (A) (A) (A) (A) (A) (A) (A) (A)
                 (A) (A) (A) (A) (A) (A) (A) (A) (A) (A) (A) (A)
                 (A) (A) (A) (A) (A) (A) (A) (A) (A) (A) (A) (A)
                 (A) (A) (A) (A) (A) (A) (A) (A) (A) (A) (A) (A)
                 (A) (A) (A) (A) (A) (A) (A) (A) (A) (A) (A) (A)
                 (A) (A) (A) (A) (A) (A) (A) (A) (A) (A) (A) (A)
                 (A) (A) (A) (A) (A) (A) (A) (A) (A) (A) (A) (A)
                 (A) (A) (A) (A) (A) (A) (A) (A) (A) (A) (A) (A)
                 (A) (A) (A) (A) (A) (A) (A) (A) (A) (A) (A) (A)
                 (A) (A) (A) (A) (A) (A) (A) (A) (A) (A) (A) (A)
                 (A) (A) (A) (A) (A) (A) (A) (A) (A) (A) (A) (A)
                 (A) (A) (A) (A) (A) (A) (A) (A) (A) (A) (A) (A)
                 (A) (A) (A) (A) (A) (A) (A) (A) (A) (A) (A) (A)
                 (A) (A) (A) (A) (A) (A) (A) (A) (A) (A) (A) (A)
                 (A) (A) (A) (A) (A) (A) (A) (A) (A) (A) (A) (A)
                 (A) (A) (A) (A) (A) (A) (A) (A) (A) (A) (A) (A)
                 (A) (A) (A) (A) (A) (A) (A) (A) (A) (A) (A) (A)
                 (A) (A) (A) (A) (A) (A) (A) (A) (A) (A) (A) (A)
                 (A) (A) (A) (A) (A) (A) (A) (A) (A) (A) (A) (A)
                 (A) (A) (A) (A) (A) (A) (A) (A) (A) (A) (A) (A)
                 (A) (A) (A) (A) (A) (A) (A) (A) (A) (A) (A) (A)
                 (A) (A) (A) (A) (A) (A) (A) (A) (A) (A) (A) (A)
                 (A) (A) (A) (A) (A) (A) (A) (A) (A) (A) (A) (A)
                 (A) (A) (A) (A) (A) (A) (A) (A) (A) (A) (A) (A)
                 (A) (A) (A) (A) (A) (A) (A) (A) (A) (A) (A) (A)
                 (A) (A) (A) (A) (A) (A) (A) (A) (A) (A) (A) (A)
                 (A) (A) (A) (A) (A) (A) (A) (A) (A) (A) (A) (A)
                 (A) (A) (A) (A) (A) (A) (A) (A) (A) (A) (A) (A)
                 (A) (A) (A) (A) (A) (A) (A) (A) (A) (A) (A) (A)
                 (A) (A) (A) (A) (A) (A) (A) (A) (A) (A) (A) (A)
                 (A) (A) (A) (A) (A) (A) (A) (A) (A) (A) (A) (A)
                 (A) (A) (A) (A) (A) (A) (A) (A) (A) (A) (A) (A)
                 (A) (A) (A) (A) (A) (A) (A) (A) (A) (A) (A) (A)
                 (A) (A) (A) (A) (A) (A) (A) (A) (A) (A) (A) (A)
                 (A) (A) (A) (A) (A) (A) (A) (A) (A) (A) (A) (A)
                 (A) (A) (A) (A) (A) (A) (A) (A) (A) (A) (A) (A)
                 (A) (A) (A) (A) (A) (A) (A) (A) (A) (A) (A) (A)
                 (A) (A) (A) (A) (A) (A) (A) (A) (A) (A) (A) (A)
                 (A) (A) (A) (A) (A) (A) (A) (A) (A) (A) (A) (A)
                 (A) (A) (A) (A) (A) (A) (A) (A) (A) (A) (A) (A)
                 (A) (A) (A) (A) (A) (A) (A) (A) (A) (A) (A) (A)
                 (A) (A) (A) (A) (A) (A) (A) (A) (A) (A) (A) (A)
                 (A) (A) (A) (A) (A) (A) (A) (A) (A) (A) (A) (A)
                 (A) (A) (A) (A) (A) (A) (A) (A) (A) (A) (A) (A)
                 (A) (A) (A) (A) (A) (A) (A) (A) (A) (A) (A) (A)
                 (A) (A) (A) (A) (A) (A) (A) (A) (A) (A) (A) (A)
                 (A) (A) (A) (A) (A) (A) (A)
 The electronic state is 1-A.
 Alpha  occ. eigenvalues --  -79.69370 -20.41606 -20.40251 -20.24865 -20.13661
 Alpha  occ. eigenvalues --  -20.13659 -20.13577 -15.40110 -11.18174 -11.14305
 Alpha  occ. eigenvalues --  -11.09367 -11.07457 -11.07024 -11.06857 -11.06381
 Alpha  occ. eigenvalues --  -11.03501  -7.20870  -5.10830  -5.10565  -5.10553
 Alpha  occ. eigenvalues --   -1.24616  -1.21280  -1.07834  -1.06250  -0.95460
 Alpha  occ. eigenvalues --   -0.92247  -0.88104  -0.87876  -0.87562  -0.79034
 Alpha  occ. eigenvalues --   -0.74877  -0.69245  -0.65489  -0.60374  -0.54138
 Alpha  occ. eigenvalues --   -0.51814  -0.50761  -0.47784  -0.44808  -0.42677
 Alpha  occ. eigenvalues --   -0.42060  -0.40414  -0.40298  -0.38274  -0.38234
 Alpha  occ. eigenvalues --   -0.37555  -0.36826  -0.32351  -0.31973  -0.29580
 Alpha  occ. eigenvalues --   -0.28540  -0.25056  -0.22386  -0.21445  -0.19913
 Alpha  occ. eigenvalues --   -0.19807  -0.15386  -0.12543  -0.11760  -0.11269
 Alpha  occ. eigenvalues --   -0.11154  -0.07814  -0.07368  -0.04452
 Alpha virt. eigenvalues --    0.14014   0.15937   0.16205   0.17120   0.19379
 Alpha virt. eigenvalues --    0.20273   0.21605   0.21690   0.22114   0.22401
 Alpha virt. eigenvalues --    0.23757   0.24112   0.24533   0.25304   0.26388
 Alpha virt. eigenvalues --    0.26456   0.26802   0.26910   0.28349   0.28572
 Alpha virt. eigenvalues --    0.28993   0.29159   0.29788   0.29996   0.30722
 Alpha virt. eigenvalues --    0.31140   0.31382   0.31892   0.32710   0.32894
 Alpha virt. eigenvalues --    0.33273   0.33642   0.34066   0.34302   0.35654
 Alpha virt. eigenvalues --    0.35932   0.36261   0.36880   0.37108   0.38461
 Alpha virt. eigenvalues --    0.38928   0.38984   0.39631   0.39938   0.40313
 Alpha virt. eigenvalues --    0.40329   0.40924   0.41258   0.41854   0.42083
 Alpha virt. eigenvalues --    0.42924   0.43257   0.44159   0.44252   0.44692
 Alpha virt. eigenvalues --    0.45599   0.46163   0.46589   0.47151   0.47280
 Alpha virt. eigenvalues --    0.47982   0.49120   0.49543   0.49610   0.49819
 Alpha virt. eigenvalues --    0.50347   0.50858   0.51058   0.51626   0.51647
 Alpha virt. eigenvalues --    0.52147   0.52496   0.52597   0.53010   0.53436
 Alpha virt. eigenvalues --    0.53962   0.54008   0.54563   0.55025   0.55458
 Alpha virt. eigenvalues --    0.55784   0.56391   0.56924   0.57297   0.57744
 Alpha virt. eigenvalues --    0.58049   0.58461   0.58897   0.59203   0.59606
 Alpha virt. eigenvalues --    0.59929   0.60292   0.60716   0.61140   0.61253
 Alpha virt. eigenvalues --    0.62426   0.63074   0.63077   0.63888   0.64124
 Alpha virt. eigenvalues --    0.64352   0.64687   0.65249   0.65758   0.65833
 Alpha virt. eigenvalues --    0.66101   0.66422   0.67280   0.67590   0.67949
 Alpha virt. eigenvalues --    0.68491   0.68704   0.68949   0.69684   0.69835
 Alpha virt. eigenvalues --    0.70164   0.70996   0.71219   0.71617   0.71870
 Alpha virt. eigenvalues --    0.72747   0.73245   0.73385   0.74404   0.74753
 Alpha virt. eigenvalues --    0.75089   0.75136   0.75820   0.75899   0.76075
 Alpha virt. eigenvalues --    0.76476   0.77624   0.77657   0.78383   0.78428
 Alpha virt. eigenvalues --    0.79162   0.79828   0.79832   0.80588   0.81518
 Alpha virt. eigenvalues --    0.81837   0.81870   0.82327   0.82501   0.83100
 Alpha virt. eigenvalues --    0.84076   0.84589   0.85290   0.85842   0.86333
 Alpha virt. eigenvalues --    0.86579   0.87331   0.88633   0.89167   0.90049
 Alpha virt. eigenvalues --    0.90239   0.90583   0.91041   0.91988   0.92579
 Alpha virt. eigenvalues --    0.92602   0.94031   0.94493   0.95296   0.95622
 Alpha virt. eigenvalues --    0.95883   0.97199   0.97692   0.97973   0.98124
 Alpha virt. eigenvalues --    0.98828   0.99116   0.99732   1.00633   1.01275
 Alpha virt. eigenvalues --    1.01822   1.01937   1.02057   1.02727   1.03127
 Alpha virt. eigenvalues --    1.03698   1.04447   1.04943   1.05394   1.05715
 Alpha virt. eigenvalues --    1.06317   1.06607   1.07026   1.08347   1.08484
 Alpha virt. eigenvalues --    1.09479   1.09677   1.10046   1.10122   1.10756
 Alpha virt. eigenvalues --    1.11323   1.11594   1.11886   1.12304   1.12477
 Alpha virt. eigenvalues --    1.13539   1.13594   1.13940   1.14358   1.14937
 Alpha virt. eigenvalues --    1.15094   1.15666   1.16178   1.16258   1.17214
 Alpha virt. eigenvalues --    1.17566   1.18284   1.18403   1.19008   1.20064
 Alpha virt. eigenvalues --    1.20128   1.20802   1.20886   1.22010   1.22142
 Alpha virt. eigenvalues --    1.23064   1.23471   1.23572   1.24058   1.24159
 Alpha virt. eigenvalues --    1.24824   1.25440   1.26487   1.26931   1.27294
 Alpha virt. eigenvalues --    1.27668   1.27928   1.28037   1.28741   1.29045
 Alpha virt. eigenvalues --    1.29167   1.29216   1.30321   1.30591   1.30924
 Alpha virt. eigenvalues --    1.31294   1.31426   1.32379   1.32448   1.32579
 Alpha virt. eigenvalues --    1.33235   1.33560   1.34614   1.34952   1.34982
 Alpha virt. eigenvalues --    1.35861   1.36597   1.37262   1.37499   1.37660
 Alpha virt. eigenvalues --    1.38320   1.39124   1.39775   1.40096   1.40424
 Alpha virt. eigenvalues --    1.40956   1.41067   1.42552   1.42561   1.42647
 Alpha virt. eigenvalues --    1.42741   1.43583   1.44576   1.44763   1.45369
 Alpha virt. eigenvalues --    1.46010   1.46794   1.47389   1.47531   1.47987
 Alpha virt. eigenvalues --    1.48344   1.48990   1.49808   1.50213   1.50662
 Alpha virt. eigenvalues --    1.51383   1.52123   1.53133   1.54213   1.54238
 Alpha virt. eigenvalues --    1.54941   1.55330   1.55792   1.55931   1.56659
 Alpha virt. eigenvalues --    1.57008   1.57919   1.58143   1.59458   1.59576
 Alpha virt. eigenvalues --    1.60929   1.62422   1.62667   1.62934   1.64042
 Alpha virt. eigenvalues --    1.64395   1.65881   1.66655   1.66688   1.67979
 Alpha virt. eigenvalues --    1.68599   1.68928   1.70127   1.70165   1.71262
 Alpha virt. eigenvalues --    1.71873   1.72445   1.73099   1.74605   1.74836
 Alpha virt. eigenvalues --    1.74996   1.75661   1.75953   1.77816   1.78163
 Alpha virt. eigenvalues --    1.79021   1.79571   1.80471   1.81042   1.81299
 Alpha virt. eigenvalues --    1.81834   1.83047   1.83254   1.84069   1.84412
 Alpha virt. eigenvalues --    1.85847   1.86234   1.86348   1.86570   1.87555
 Alpha virt. eigenvalues --    1.87913   1.88806   1.89384   1.89496   1.89690
 Alpha virt. eigenvalues --    1.91548   1.91674   1.92417   1.93442   1.93473
 Alpha virt. eigenvalues --    1.94184   1.94815   1.95038   1.96216   1.96530
 Alpha virt. eigenvalues --    1.97973   1.98218   1.98625   1.98716   1.99547
 Alpha virt. eigenvalues --    2.01360   2.01835   2.02558   2.02567   2.04956
 Alpha virt. eigenvalues --    2.05895   2.06324   2.06639   2.07028   2.07206
 Alpha virt. eigenvalues --    2.08852   2.09423   2.09662   2.10658   2.11638
 Alpha virt. eigenvalues --    2.12407   2.12960   2.13991   2.15462   2.15491
 Alpha virt. eigenvalues --    2.15969   2.16224   2.17181   2.17539   2.18493
 Alpha virt. eigenvalues --    2.19171   2.19737   2.20672   2.22006   2.22787
 Alpha virt. eigenvalues --    2.23338   2.24407   2.25196   2.25687   2.26081
 Alpha virt. eigenvalues --    2.26829   2.28554   2.29160   2.30374   2.30593
 Alpha virt. eigenvalues --    2.30757   2.31617   2.33408   2.33655   2.33792
 Alpha virt. eigenvalues --    2.34854   2.34878   2.35111   2.36555   2.37531
 Alpha virt. eigenvalues --    2.37959   2.39359   2.39684   2.40982   2.41297
 Alpha virt. eigenvalues --    2.41760   2.43386   2.43597   2.43715   2.44676
 Alpha virt. eigenvalues --    2.45351   2.45774   2.45938   2.48206   2.48244
 Alpha virt. eigenvalues --    2.48948   2.49435   2.50516   2.50946   2.51742
 Alpha virt. eigenvalues --    2.52469   2.55145   2.55734   2.56770   2.57385
 Alpha virt. eigenvalues --    2.57919   2.59334   2.59596   2.61012   2.61776
 Alpha virt. eigenvalues --    2.61944   2.62884   2.63459   2.63905   2.65320
 Alpha virt. eigenvalues --    2.66154   2.66521   2.66687   2.67151   2.68235
 Alpha virt. eigenvalues --    2.69043   2.70102   2.70586   2.71400   2.71918
 Alpha virt. eigenvalues --    2.72686   2.72916   2.74180   2.76000   2.78267
 Alpha virt. eigenvalues --    2.79177   2.79366   2.81735   2.82206   2.82271
 Alpha virt. eigenvalues --    2.82884   2.83468   2.83531   2.85245   2.85418
 Alpha virt. eigenvalues --    2.85930   2.86747   2.86860   2.87876   2.90076
 Alpha virt. eigenvalues --    2.90870   2.91203   2.92384   2.93522   2.94053
 Alpha virt. eigenvalues --    2.95894   2.95942   2.96687   2.98295   2.98361
 Alpha virt. eigenvalues --    2.98579   3.00291   3.00881   3.01612   3.03179
 Alpha virt. eigenvalues --    3.04847   3.06662   3.07180   3.07548   3.08011
 Alpha virt. eigenvalues --    3.09519   3.10265   3.10913   3.12331   3.12811
 Alpha virt. eigenvalues --    3.14178   3.14710   3.15670   3.17036   3.18711
 Alpha virt. eigenvalues --    3.18849   3.19597   3.22039   3.23466   3.24835
 Alpha virt. eigenvalues --    3.26137   3.26144   3.27493   3.29108   3.29867
 Alpha virt. eigenvalues --    3.31023   3.32121   3.32493   3.33969   3.36344
 Alpha virt. eigenvalues --    3.37350   3.38141   3.40259   3.40789   3.41311
 Alpha virt. eigenvalues --    3.45200   3.46921   3.48260   3.48456   3.49368
 Alpha virt. eigenvalues --    3.51887   3.52374   3.53230   3.53882   3.55256
 Alpha virt. eigenvalues --    3.55524   3.55574   3.58083   3.59681   3.59704
 Alpha virt. eigenvalues --    3.61298   3.63301   3.63686   3.66209   3.66773
 Alpha virt. eigenvalues --    3.67608   3.68289   3.68867   3.68975   3.70125
 Alpha virt. eigenvalues --    3.71616   3.71927   3.73083   3.74794   3.74966
 Alpha virt. eigenvalues --    3.76068   3.76243   3.77904   3.78044   3.78294
 Alpha virt. eigenvalues --    3.80274   3.81174   3.81325   3.81583   3.82316
 Alpha virt. eigenvalues --    3.83663   3.84258   3.85516   3.85715   3.86675
 Alpha virt. eigenvalues --    3.87414   3.88937   3.90024   3.90928   3.91667
 Alpha virt. eigenvalues --    3.91771   3.93481   3.94155   3.94491   3.95860
 Alpha virt. eigenvalues --    3.96395   3.97011   3.98674   3.98958   4.00064
 Alpha virt. eigenvalues --    4.01154   4.01807   4.03279   4.04518   4.05723
 Alpha virt. eigenvalues --    4.05949   4.08545   4.09484   4.10083   4.11739
 Alpha virt. eigenvalues --    4.12105   4.13441   4.14595   4.15923   4.16239
 Alpha virt. eigenvalues --    4.16803   4.17573   4.18577   4.18850   4.19790
 Alpha virt. eigenvalues --    4.20996   4.22176   4.22981   4.24039   4.24519
 Alpha virt. eigenvalues --    4.25308   4.26373   4.27136   4.28584   4.29800
 Alpha virt. eigenvalues --    4.31159   4.31713   4.33712   4.34367   4.35967
 Alpha virt. eigenvalues --    4.38214   4.38866   4.38939   4.41237   4.43234
 Alpha virt. eigenvalues --    4.44086   4.44642   4.44795   4.45233   4.47142
 Alpha virt. eigenvalues --    4.47820   4.48078   4.49613   4.51659   4.51695
 Alpha virt. eigenvalues --    4.52876   4.54980   4.55278   4.55935   4.58901
 Alpha virt. eigenvalues --    4.60086   4.60723   4.61401   4.62711   4.63198
 Alpha virt. eigenvalues --    4.65015   4.65774   4.66680   4.68284   4.69430
 Alpha virt. eigenvalues --    4.69659   4.72287   4.72320   4.72899   4.73750
 Alpha virt. eigenvalues --    4.76076   4.77728   4.78459   4.79927   4.82145
 Alpha virt. eigenvalues --    4.83145   4.83166   4.84812   4.86901   4.90365
 Alpha virt. eigenvalues --    4.90407   4.91377   4.92040   4.93431   4.94834
 Alpha virt. eigenvalues --    4.97117   4.97338   5.00510   5.01203   5.01954
 Alpha virt. eigenvalues --    5.02498   5.02737   5.04153   5.05935   5.07256
 Alpha virt. eigenvalues --    5.08408   5.09286   5.10565   5.12909   5.12949
 Alpha virt. eigenvalues --    5.13651   5.15754   5.16625   5.16900   5.18625
 Alpha virt. eigenvalues --    5.20595   5.21310   5.23357   5.24110   5.26665
 Alpha virt. eigenvalues --    5.26864   5.29427   5.31838   5.32371   5.32936
 Alpha virt. eigenvalues --    5.33286   5.33550   5.34145   5.36328   5.38633
 Alpha virt. eigenvalues --    5.40090   5.42579   5.43212   5.43866   5.46110
 Alpha virt. eigenvalues --    5.47514   5.49281   5.51750   5.53374   5.54050
 Alpha virt. eigenvalues --    5.55416   5.60288   5.60348   5.63927   5.65661
 Alpha virt. eigenvalues --    5.66587   5.66838   5.68007   5.69039   5.70432
 Alpha virt. eigenvalues --    5.73945   5.74178   5.75099   5.78760   5.79600
 Alpha virt. eigenvalues --    5.83000   5.84254   5.85863   5.87765   5.89353
 Alpha virt. eigenvalues --    5.95056   5.97380   5.98849   6.00981   6.01153
 Alpha virt. eigenvalues --    6.02755   6.05781   6.05948   6.08802   6.11394
 Alpha virt. eigenvalues --    6.13690   6.15858   6.24696   6.24984   6.25828
 Alpha virt. eigenvalues --    6.27328   6.31761   6.32646   6.33710   6.37883
 Alpha virt. eigenvalues --    6.42180   6.45121   6.46654   6.49678   6.61439
 Alpha virt. eigenvalues --    6.64866   6.70632   6.72900   6.76234   6.85801
 Alpha virt. eigenvalues --    6.87033   6.88049   6.92072   6.92719   6.93879
 Alpha virt. eigenvalues --    6.98025   7.01779   7.03087   7.03548   7.04205
 Alpha virt. eigenvalues --    7.05020   7.05426   7.09422   7.09558   7.10327
 Alpha virt. eigenvalues --    7.11742   7.12439   7.14042   7.16014   7.16076
 Alpha virt. eigenvalues --    7.16857   7.20084   7.22681   7.23603   7.23811
 Alpha virt. eigenvalues --    7.25046   7.25229   7.25632   7.27391   7.28002
 Alpha virt. eigenvalues --    7.29198   7.30998   7.31546   7.32621   7.33015
 Alpha virt. eigenvalues --    7.35165   7.38357   7.40122   7.40138   7.41220
 Alpha virt. eigenvalues --    7.42607   7.43358   7.45567   7.51497   7.51771
 Alpha virt. eigenvalues --    7.55931   7.59435   7.60593   7.60604   7.63599
 Alpha virt. eigenvalues --    7.63699   7.66180   7.66558   7.66588   7.67829
 Alpha virt. eigenvalues --    7.68870   7.74597   7.76061   7.78208   7.80820
 Alpha virt. eigenvalues --    7.83856   7.86910   7.88685   7.90514   7.91630
 Alpha virt. eigenvalues --    7.95234   7.96240   7.97394   8.00033   8.01678
 Alpha virt. eigenvalues --    8.02811   8.03613   8.04655   8.09679   8.13554
 Alpha virt. eigenvalues --    8.13655   8.16974   8.30088   8.37597   8.42834
 Alpha virt. eigenvalues --    8.48634   8.63895   8.95416  11.06923  12.55380
 Alpha virt. eigenvalues --   12.60963  13.95417  15.55696  16.17694  16.40535
 Alpha virt. eigenvalues --   16.82897  16.98694  18.54984  19.16569  19.52503
 Alpha virt. eigenvalues --   19.96565  20.61483  21.27724  21.64522
          Condensed to atoms (all electrons):
              1          2          3          4          5          6
     1  N   10.473628  -0.939760  -0.223844   0.491624  -0.077139  -0.606315
     2  C   -0.939760  14.019719  -1.930451  -3.535922   0.062089  -0.050457
     3  C   -0.223844  -1.930451   9.764354  -0.184045   0.007817   0.038513
     4  C    0.491624  -3.535922  -0.184045  18.100966  -1.025948  -7.051064
     5  O   -0.077139   0.062089   0.007817  -1.025948   9.874440   0.070210
     6  C   -0.606315  -0.050457   0.038513  -7.051064   0.070210  21.281290
     7  C    0.026820   0.020111  -0.038521  -0.364494   0.143256  -1.785891
     8  O   -0.011353   0.037272  -0.004039   0.147586  -0.060058   0.053851
     9  C    0.510602  -0.621351   0.033861  -0.305230   0.052263  -4.900581
    10  C   -1.917421  -1.330257  -0.284074  -0.872594   0.050954  -0.224347
    11  C    0.485439  -0.286154  -0.069937   0.505360  -0.054385  -0.497783
    12  O    0.073730   0.063347   0.000275  -0.058838   0.000801   0.126347
    13  P    0.018601  -0.019268  -0.002035   0.018131  -0.000773   0.098756
    14  O    0.001305  -0.000262  -0.000163  -0.000054  -0.000019   0.006860
    15  O    0.003078  -0.000709   0.000023   0.000166   0.000001   0.008753
    16  O    0.001244  -0.000315  -0.000164  -0.000004  -0.000018   0.006856
    17  H    0.013049   0.059437  -0.070629  -0.067854   0.029203   0.017885
    18  H    0.012965   0.059483  -0.070514  -0.067741   0.029148   0.017993
    19  H    0.007985  -0.002099   0.108438   0.124609  -0.019825  -0.013733
    20  H    0.027063  -0.050252  -0.013596   0.267990  -0.182154  -0.298778
    21  H   -0.002266   0.012658  -0.001150  -0.054282  -0.024500  -0.329428
    22  H   -0.697244   0.049969  -0.012391  -0.169130   0.006528   0.004936
    23  H    0.026751  -0.025347   0.003884   0.081499  -0.002337  -0.480260
    24  H    0.026603  -0.025374   0.003873   0.081422  -0.002337  -0.480898
              7          8          9         10         11         12
     1  N    0.026820  -0.011353   0.510602  -1.917421   0.485439   0.073730
     2  C    0.020111   0.037272  -0.621351  -1.330257  -0.286154   0.063347
     3  C   -0.038521  -0.004039   0.033861  -0.284074  -0.069937   0.000275
     4  C   -0.364494   0.147586  -0.305230  -0.872594   0.505360  -0.058838
     5  O    0.143256  -0.060058   0.052263   0.050954  -0.054385   0.000801
     6  C   -1.785891   0.053851  -4.900581  -0.224347  -0.497783   0.126347
     7  C    9.900543  -0.432258  -1.105809   0.278494  -0.335894   0.034431
     8  O   -0.432258   9.402925  -0.037821  -0.020516   0.092354  -0.001786
     9  C   -1.105809  -0.037821  21.004163  -3.826550  -4.753684  -0.252956
    10  C    0.278494  -0.020516  -3.826550  17.907553  -2.622264  -0.036283
    11  C   -0.335894   0.092354  -4.753684  -2.622264  16.405449  -0.451566
    12  O    0.034431  -0.001786  -0.252956  -0.036283  -0.451566   9.586867
    13  P    0.004802   0.000040  -0.207951  -0.146707  -0.027796  -0.160840
    14  O    0.004557  -0.000569   0.004155   0.000177   0.018172  -0.015356
    15  O    0.001419   0.000001  -0.022514  -0.013027   0.060887  -0.074840
    16  O    0.004571  -0.000569   0.004094   0.000486   0.017799  -0.014895
    17  H   -0.002496   0.000977   0.016170   0.035658   0.000190   0.000191
    18  H   -0.002500   0.000976   0.016167   0.035549   0.000195   0.000193
    19  H    0.000323  -0.000807   0.018429  -0.078550  -0.001488  -0.000305
    20  H   -0.098372  -0.030210   0.030649  -0.020144   0.016273  -0.000763
    21  H    0.177541  -0.323981  -0.266789   0.013281  -0.058240   0.008138
    22  H   -0.013380   0.002069  -1.050058   0.089932  -0.574439  -0.172816
    23  H    0.001159   0.002850   0.193365  -0.098252  -0.699934  -0.027007
    24  H    0.000804   0.002874   0.194099  -0.097742  -0.701044  -0.027652
             13         14         15         16         17         18
     1  N    0.018601   0.001305   0.003078   0.001244   0.013049   0.012965
     2  C   -0.019268  -0.000262  -0.000709  -0.000315   0.059437   0.059483
     3  C   -0.002035  -0.000163   0.000023  -0.000164  -0.070629  -0.070514
     4  C    0.018131  -0.000054   0.000166  -0.000004  -0.067854  -0.067741
     5  O   -0.000773  -0.000019   0.000001  -0.000018   0.029203   0.029148
     6  C    0.098756   0.006860   0.008753   0.006856   0.017885   0.017993
     7  C    0.004802   0.004557   0.001419   0.004571  -0.002496  -0.002500
     8  O    0.000040  -0.000569   0.000001  -0.000569   0.000977   0.000976
     9  C   -0.207951   0.004155  -0.022514   0.004094   0.016170   0.016167
    10  C   -0.146707   0.000177  -0.013027   0.000486   0.035658   0.035549
    11  C   -0.027796   0.018172   0.060887   0.017799   0.000190   0.000195
    12  O   -0.160840  -0.015356  -0.074840  -0.014895   0.000191   0.000193
    13  P   14.216832   0.237528   0.124026   0.237466  -0.000112  -0.000111
    14  O    0.237528   8.809475  -0.036199  -0.031031  -0.000028  -0.000013
    15  O    0.124026  -0.036199   8.930372  -0.036294   0.000015   0.000015
    16  O    0.237466  -0.031031  -0.036294   8.809389  -0.000013  -0.000028
    17  H   -0.000112  -0.000028   0.000015  -0.000013   0.667636   0.066279
    18  H   -0.000111  -0.000013   0.000015  -0.000028   0.066279   0.667516
    19  H    0.000044   0.000023  -0.000064   0.000023  -0.066779  -0.066760
    20  H   -0.000051  -0.000001  -0.000033   0.000000  -0.004290  -0.004287
    21  H    0.007657   0.000698   0.000223   0.000687  -0.000087  -0.000088
    22  H   -0.027156   0.000013  -0.004834   0.000062   0.002131   0.002130
    23  H   -0.212115  -0.034898   0.012778  -0.034477   0.000168   0.000612
    24  H   -0.212136  -0.034328   0.012662  -0.034957   0.000612   0.000167
             19         20         21         22         23         24
     1  N    0.007985   0.027063  -0.002266  -0.697244   0.026751   0.026603
     2  C   -0.002099  -0.050252   0.012658   0.049969  -0.025347  -0.025374
     3  C    0.108438  -0.013596  -0.001150  -0.012391   0.003884   0.003873
     4  C    0.124609   0.267990  -0.054282  -0.169130   0.081499   0.081422
     5  O   -0.019825  -0.182154  -0.024500   0.006528  -0.002337  -0.002337
     6  C   -0.013733  -0.298778  -0.329428   0.004936  -0.480260  -0.480898
     7  C    0.000323  -0.098372   0.177541  -0.013380   0.001159   0.000804
     8  O   -0.000807  -0.030210  -0.323981   0.002069   0.002850   0.002874
     9  C    0.018429   0.030649  -0.266789  -1.050058   0.193365   0.194099
    10  C   -0.078550  -0.020144   0.013281   0.089932  -0.098252  -0.097742
    11  C   -0.001488   0.016273  -0.058240  -0.574439  -0.699934  -0.701044
    12  O   -0.000305  -0.000763   0.008138  -0.172816  -0.027007  -0.027652
    13  P    0.000044  -0.000051   0.007657  -0.027156  -0.212115  -0.212136
    14  O    0.000023  -0.000001   0.000698   0.000013  -0.034898  -0.034328
    15  O   -0.000064  -0.000033   0.000223  -0.004834   0.012778   0.012662
    16  O    0.000023   0.000000   0.000687   0.000062  -0.034477  -0.034957
    17  H   -0.066779  -0.004290  -0.000087   0.002131   0.000168   0.000612
    18  H   -0.066760  -0.004287  -0.000088   0.002130   0.000612   0.000167
    19  H    0.715312   0.000949  -0.000050  -0.009604  -0.000017  -0.000016
    20  H    0.000949   1.154344   0.031523  -0.001514   0.002669   0.002676
    21  H   -0.000050   0.031523   1.335862  -0.003081  -0.080750  -0.080758
    22  H   -0.009604  -0.001514  -0.003081   2.966695  -0.025028  -0.024780
    23  H   -0.000017   0.002669  -0.080750  -0.025028   1.666292   0.443626
    24  H   -0.000016   0.002676  -0.080758  -0.024780   0.443626   1.668617
 Mulliken atomic charges:
              1
     1  N   -0.725145
     2  C    0.433891
     3  C   -1.055485
     4  C   -0.062154
     5  O   -0.877217
     6  C    0.987285
     7  C   -0.419214
     8  O   -0.819806
     9  C    1.273276
    10  C   -0.823356
    11  C   -0.467508
    12  O   -0.598416
    13  P    1.053165
    14  O   -0.930041
    15  O   -0.965904
    16  O   -0.929910
    17  H    0.302688
    18  H    0.302654
    19  H    0.283963
    20  H    0.170310
    21  H    0.637182
    22  H    0.660989
    23  H    0.284767
    24  H    0.283987
 Sum of Mulliken atomic charges =  -2.00000
 Mulliken charges with hydrogens summed into heavy atoms:
              1
     1  N   -0.725145
     2  C    0.433891
     3  C   -0.166180
     4  C   -0.062154
     5  O   -0.706907
     6  C    0.987285
     7  C    0.217968
     8  O   -0.819806
     9  C    1.273276
    10  C   -0.162368
    11  C    0.101246
    12  O   -0.598416
    13  P    1.053165
    14  O   -0.930041
    15  O   -0.965904
    16  O   -0.929910
 Sum of Mulliken charges with hydrogens summed into heavy atoms =  -2.00000
 DipInt: DoE/N= T F RetVal/Mat= T F Init=T NMatP=  1 IDeriv=0 Min/MaxMlt=  0  4
 Entering OneElI...
 OneElI was handed  8586972760 working-precision words.
 Multipole integrals L=0 to 4 MinM= 0 MaxM= 0.
 Requested accuracy = 0.1000D-12
 PrsmSu:  NPrtUS=   1 ThrOK=F IAlg=1 NPAlg=1 LenDen=           0.
 Prism:   IPart=     0 DynPar=F LinDyn=F Incr=         394.
 PRISM was handed  8583978046 working-precision words and 39405 shell-pairs
 IPart=  0 NShTot=       39405 NBatch=         295 AvBLen=       133.6
 PrSmSu:  NxtVal=            395.
 Electronic moments (au):
       -128.00000000         10.12763192          0.48156161         -0.00201833
      -4206.74056584       -961.83437360       -196.05374805         -4.71293331
          0.00494987          0.00030164       2486.42784705       -650.08870421
         -0.89015400      -2677.99211579       1617.79400235         -1.67233551
        695.94331767       -136.89632314          0.40516245         -0.31410144
    -220039.13426162     -19325.74828005      -1448.13983794       5927.22210916
        -12.09231073      -2664.43616950          0.47585400          4.89822861
         -0.36136163     -29074.86647571      -8209.85305004      -1004.27821271
          5.66494034         -2.99765036       1261.19865027
 Electronic spatial extent (au):  <R**2>=           5364.6287
 DipInt: DoE/N= F T RetVal/Mat= T F Init=T NMatP=  1 IDeriv=0 Min/MaxMlt=  0  4
 Nuclear    moments (au):
        126.00000000          0.00000000          0.00000000          0.00000000
       4016.90884836        863.44299401        106.67149123          0.00000000
          0.00000000          0.00000000      -1879.36163121        665.26288041
          0.80223086       2700.61598731      -1594.34076137          1.69110565
       -616.60229331        129.82658556         -0.38038186          0.26254543
     198209.89185216      15317.04487590        601.88609458      -6362.18032044
         11.14526005       2603.03064057         -0.41804328         -4.28944891
          0.31935461      25103.02054920       5015.64157705        265.66487796
         -5.24692108          2.84572926      -1113.53376929
 Total      moments (au):
         -2.00000000         10.12763192          0.48156161         -0.00201833
       -189.83171747        -98.39137959        -89.38225682         -4.71293331
          0.00494987          0.00030164        607.06621583         15.17417621
         -0.08792315         22.62387151         23.45324099          0.01877015
         79.34102436         -7.06973759          0.02478059         -0.05155600
     -21829.24240946      -4008.70340415       -846.25374336       -434.95821128
         -0.94705068        -61.40552892          0.05781071          0.60877970
         -0.04200702      -3971.84592652      -3194.21147299       -738.61333475
          0.41801925         -0.15192109        147.66488098
 Traceless Quadrup. (au):
        -63.96326618         27.47707171         36.48619447         -4.71293331
          0.00494987          0.00030164
 Charge=             -2.0000 electrons
 Dipole moment (field-independent basis, Debye):
    X=             25.7419    Y=              1.2240    Z=             -0.0051  Tot=             25.7710
 Quadrupole moment (field-independent basis, Debye-Ang):
   XX=           -255.3301   YY=           -132.3398   ZZ=           -120.2222
   XY=             -6.3391   XZ=              0.0067   YZ=              0.0004
 Traceless Quadrupole moment (field-independent basis, Debye-Ang):
   XX=            -86.0328   YY=             36.9576   ZZ=             49.0752
   XY=             -6.3391   XZ=              0.0067   YZ=              0.0004
 Octapole moment (field-independent basis, Debye-Ang**2):
  XXX=            432.0863  YYY=             10.8004  ZZZ=             -0.0626  XYY=             16.1028
  XXY=             16.6931  XXZ=              0.0134  XZZ=             56.4719  YZZ=             -5.0320
  YYZ=              0.0176  XYZ=             -0.0367
 Hexadecapole moment (field-independent basis, Debye-Ang**3):
 XXXX=          -8221.9389 YYYY=          -1509.8698 ZZZZ=           -318.7397 XXXY=           -163.8261
 XXXZ=             -0.3567 YYYX=            -23.1283 YYYZ=              0.0218 ZZZX=              0.2293
 ZZZY=             -0.0158 XXYY=          -1495.9875 XXZZ=          -1203.0931 YYZZ=           -278.1972
 XXYZ=              0.1574 YYXZ=             -0.0572 ZZXY=             55.6177
 N-N= 1.205656215291D+03 E-N=-5.169916169412D+03  KE= 1.154510484374D+03
 Entering OneElI...
 OneElI was handed  8584942404 working-precision words.
 Calculate electrostatic properties
    NBasis =   924  MinDer = 0  MaxDer = 0
    NGrid  =    24  NMatD  =   1
 Requested accuracy = 0.1000D-12
 PrsmSu:  NPrtUS=  64 ThrOK=T IAlg=1 NPAlg=1 LenDen=           0.
 Prism:   IPart=     0 DynPar=F LinDyn=F Incr=         139.
 PRISM was handed   133444417 working-precision words and 37233 shell-pairs
 PRISM was handed   133444417 working-precision words and 37233 shell-pairs
 PRISM was handed   133444417 working-precision words and 37233 shell-pairs
 PRISM was handed   133444417 working-precision words and 37233 shell-pairs
 PRISM was handed   133444417 working-precision words and 37233 shell-pairs
 PRISM was handed   133444417 working-precision words and 37233 shell-pairs
 PRISM was handed   133444417 working-precision words and 37233 shell-pairs
 PRISM was handed   133444417 working-precision words and 37233 shell-pairs
 PRISM was handed   133444417 working-precision words and 37233 shell-pairs
 PRISM was handed   133444417 working-precision words and 37233 shell-pairs
 PRISM was handed   133444417 working-precision words and 37233 shell-pairs
 PRISM was handed   133444417 working-precision words and 37233 shell-pairs
 PRISM was handed   133444417 working-precision words and 37233 shell-pairs
 PRISM was handed   133444417 working-precision words and 37233 shell-pairs
 PRISM was handed   133444417 working-precision words and 37233 shell-pairs
 PRISM was handed   133444417 working-precision words and 37233 shell-pairs
 PRISM was handed   133444417 working-precision words and 37233 shell-pairs
 PRISM was handed   133444417 working-precision words and 37233 shell-pairs
 PRISM was handed   133444417 working-precision words and 37233 shell-pairs
 PRISM was handed   133444417 working-precision words and 37233 shell-pairs
 PRISM was handed   133444417 working-precision words and 37233 shell-pairs
 PRISM was handed   133444417 working-precision words and 37233 shell-pairs
 PRISM was handed   133444417 working-precision words and 37233 shell-pairs
 PRISM was handed   133444417 working-precision words and 37233 shell-pairs
 PRISM was handed   133444417 working-precision words and 37233 shell-pairs
 PRISM was handed   133444417 working-precision words and 37233 shell-pairs
 PRISM was handed   133444417 working-precision words and 37233 shell-pairs
 PRISM was handed   133444417 working-precision words and 37233 shell-pairs
 PRISM was handed   133444417 working-precision words and 37233 shell-pairs
 PRISM was handed   133444417 working-precision words and 37233 shell-pairs
 PRISM was handed   133444417 working-precision words and 37233 shell-pairs
 PRISM was handed   133444417 working-precision words and 37233 shell-pairs
 PRISM was handed   133444417 working-precision words and 37233 shell-pairs
 PRISM was handed   133444417 working-precision words and 37233 shell-pairs
 PRISM was handed   133444417 working-precision words and 37233 shell-pairs
 PRISM was handed   133444417 working-precision words and 37233 shell-pairs
 PRISM was handed   133444417 working-precision words and 37233 shell-pairs
 PRISM was handed   133444417 working-precision words and 37233 shell-pairs
 PRISM was handed   133444417 working-precision words and 37233 shell-pairs
 PRISM was handed   133444417 working-precision words and 37233 shell-pairs
 PRISM was handed   133444417 working-precision words and 37233 shell-pairs
 PRISM was handed   133444417 working-precision words and 37233 shell-pairs
 PRISM was handed   133444417 working-precision words and 37233 shell-pairs
 PRISM was handed   133444417 working-precision words and 37233 shell-pairs
 PRISM was handed   133444417 working-precision words and 37233 shell-pairs
 PRISM was handed   133444417 working-precision words and 37233 shell-pairs
 PRISM was handed   133444417 working-precision words and 37233 shell-pairs
 PRISM was handed   133444417 working-precision words and 37233 shell-pairs
 PRISM was handed   133444417 working-precision words and 37233 shell-pairs
 PRISM was handed   133444417 working-precision words and 37233 shell-pairs
 PRISM was handed   133444417 working-precision words and 37233 shell-pairs
 PRISM was handed   133444417 working-precision words and 37233 shell-pairs
 PRISM was handed   133444417 working-precision words and 37233 shell-pairs
 PRISM was handed   133444417 working-precision words and 37233 shell-pairs
 PRISM was handed   133444417 working-precision words and 37233 shell-pairs
 PRISM was handed   133444417 working-precision words and 37233 shell-pairs
 PRISM was handed   133444417 working-precision words and 37233 shell-pairs
 PRISM was handed   133444417 working-precision words and 37233 shell-pairs
 PRISM was handed   133444417 working-precision words and 37233 shell-pairs
 PRISM was handed   133444417 working-precision words and 37233 shell-pairs
 PRISM was handed   133444417 working-precision words and 37233 shell-pairs
 PRISM was handed   133444417 working-precision words and 37233 shell-pairs
 PRISM was handed   133444417 working-precision words and 37233 shell-pairs
 PRISM was handed   133444417 working-precision words and 37233 shell-pairs
 IPart= 55 NShTot=       13416 NBatch=         559 AvBLen=        24.0
 IPart= 47 NShTot=       13464 NBatch=         561 AvBLen=        24.0
 IPart= 62 NShTot=       13344 NBatch=         556 AvBLen=        24.0
 IPart= 38 NShTot=       13656 NBatch=         569 AvBLen=        24.0
 IPart= 29 NShTot=       13872 NBatch=         578 AvBLen=        24.0
 IPart= 17 NShTot=       14136 NBatch=         589 AvBLen=        24.0
 IPart= 56 NShTot=       13392 NBatch=         558 AvBLen=        24.0
 IPart= 63 NShTot=       13296 NBatch=         554 AvBLen=        24.0
 IPart=  7 NShTot=       14832 NBatch=         618 AvBLen=        24.0
 IPart= 11 NShTot=       14544 NBatch=         606 AvBLen=        24.0
 IPart= 22 NShTot=       14064 NBatch=         586 AvBLen=        24.0
 IPart= 45 NShTot=       13512 NBatch=         563 AvBLen=        24.0
 IPart=  1 NShTot=       15360 NBatch=         640 AvBLen=        24.0
 IPart= 34 NShTot=       13776 NBatch=         574 AvBLen=        24.0
 IPart= 40 NShTot=       13632 NBatch=         568 AvBLen=        24.0
 IPart= 28 NShTot=       13920 NBatch=         580 AvBLen=        24.0
 IPart= 12 NShTot=       14544 NBatch=         606 AvBLen=        24.0
 IPart= 20 NShTot=       14064 NBatch=         586 AvBLen=        24.0
 IPart=  8 NShTot=       14736 NBatch=         614 AvBLen=        24.0
 IPart=  4 NShTot=       14952 NBatch=         623 AvBLen=        24.0
 IPart= 16 NShTot=       14232 NBatch=         593 AvBLen=        24.0
 IPart= 33 NShTot=       13776 NBatch=         574 AvBLen=        24.0
 IPart=  5 NShTot=       14904 NBatch=         621 AvBLen=        24.0
 IPart=  0 NShTot=       15480 NBatch=         645 AvBLen=        24.0
 IPart= 58 NShTot=       13368 NBatch=         557 AvBLen=        24.0
 IPart=  6 NShTot=       14856 NBatch=         619 AvBLen=        24.0
 IPart= 44 NShTot=       13560 NBatch=         565 AvBLen=        24.0
 IPart= 39 NShTot=       13656 NBatch=         569 AvBLen=        24.0
 IPart= 14 NShTot=       14448 NBatch=         602 AvBLen=        24.0
 IPart= 50 NShTot=       13440 NBatch=         560 AvBLen=        24.0
 IPart= 37 NShTot=       13704 NBatch=         571 AvBLen=        24.0
 IPart= 15 NShTot=       14304 NBatch=         596 AvBLen=        24.0
 IPart= 59 NShTot=       13368 NBatch=         557 AvBLen=        24.0
 IPart= 54 NShTot=       13416 NBatch=         559 AvBLen=        24.0
 IPart= 46 NShTot=       13488 NBatch=         562 AvBLen=        24.0
 IPart= 49 NShTot=       13440 NBatch=         560 AvBLen=        24.0
 IPart= 31 NShTot=       13776 NBatch=         574 AvBLen=        24.0
 IPart= 60 NShTot=       13344 NBatch=         556 AvBLen=        24.0
 IPart= 26 NShTot=       13968 NBatch=         582 AvBLen=        24.0
 IPart= 57 NShTot=       13392 NBatch=         558 AvBLen=        24.0
 IPart= 25 NShTot=       13992 NBatch=         583 AvBLen=        24.0
 IPart= 51 NShTot=       13440 NBatch=         560 AvBLen=        24.0
 IPart= 42 NShTot=       13560 NBatch=         565 AvBLen=        24.0
 IPart= 52 NShTot=       13416 NBatch=         559 AvBLen=        24.0
 IPart= 61 NShTot=       13344 NBatch=         556 AvBLen=        24.0
 IPart= 13 NShTot=       14496 NBatch=         604 AvBLen=        24.0
 IPart=  9 NShTot=       14688 NBatch=         612 AvBLen=        24.0
 IPart= 19 NShTot=       14088 NBatch=         587 AvBLen=        24.0
 IPart= 48 NShTot=       13440 NBatch=         560 AvBLen=        24.0
 IPart= 24 NShTot=       14016 NBatch=         584 AvBLen=        24.0
 IPart= 35 NShTot=       13776 NBatch=         574 AvBLen=        24.0
 IPart=  2 NShTot=       15168 NBatch=         632 AvBLen=        24.0
 IPart= 10 NShTot=       14616 NBatch=         609 AvBLen=        24.0
 IPart= 23 NShTot=       14064 NBatch=         586 AvBLen=        24.0
 IPart= 21 NShTot=       14064 NBatch=         586 AvBLen=        24.0
 IPart= 30 NShTot=       13848 NBatch=         577 AvBLen=        24.0
 IPart= 27 NShTot=       13944 NBatch=         581 AvBLen=        24.0
 IPart= 43 NShTot=       13560 NBatch=         565 AvBLen=        24.0
 IPart= 18 NShTot=       14112 NBatch=         588 AvBLen=        24.0
 IPart= 53 NShTot=       13416 NBatch=         559 AvBLen=        24.0
 IPart=  3 NShTot=       15000 NBatch=         625 AvBLen=        24.0
 IPart= 32 NShTot=       13776 NBatch=         574 AvBLen=        24.0
 IPart= 36 NShTot=       13752 NBatch=         573 AvBLen=        24.0
 IPart= 41 NShTot=       13584 NBatch=         566 AvBLen=        24.0
 PrSmSu:  NxtVal=           8897.
 --------------------------------------------------------
       Center         ----      EFG at Nuclei      ----
                      3XX-RR        3YY-RR        3ZZ-RR
 --------------------------------------------------------
     1   Atom       -0.270951      0.914378     -0.643427
     2   Atom        0.076032      0.122189     -0.198221
     3   Atom       -0.026211      0.020300      0.005911
     4   Atom       -0.022621      0.207262     -0.184641
     5   Atom       -0.239407     -0.853357      1.092764
     6   Atom        0.128759      0.076153     -0.204912
     7   Atom        0.279437      0.289494     -0.568930
     8   Atom        0.253301      0.835913     -1.089214
     9   Atom        0.217322      0.216920     -0.434242
    10   Atom        0.111468      0.227924     -0.339392
    11   Atom       -0.162357     -0.033986      0.196343
    12   Atom       -1.031165     -0.368534      1.399699
    13   Atom       -0.879547      0.397181      0.482366
    14   Atom        0.242328      0.155746     -0.398074
    15   Atom       -0.083908     -0.481902      0.565810
    16   Atom        0.242368      0.158646     -0.401014
    17   Atom        0.019306      0.115376     -0.134682
    18   Atom        0.019821      0.115646     -0.135467
    19   Atom        0.140861     -0.288913      0.148052
    20   Atom        0.105957     -0.297369      0.191412
    21   Atom       -0.204884      0.068812      0.136072
    22   Atom       -0.109583     -0.039984      0.149567
    23   Atom        0.129553     -0.010912     -0.118641
    24   Atom        0.129611     -0.011519     -0.118092
 --------------------------------------------------------
                        XY            XZ            YZ
 --------------------------------------------------------
     1   Atom       -0.194133      0.000110      0.000103
     2   Atom       -0.008295      0.000101      0.000020
     3   Atom        0.057114     -0.000003      0.000033
     4   Atom       -0.241699      0.000038     -0.000071
     5   Atom       -0.744747     -0.000660     -0.000322
     6   Atom        0.045695      0.000122      0.000032
     7   Atom       -0.104398      0.000286     -0.000012
     8   Atom       -1.100256      0.000447     -0.000311
     9   Atom       -0.077255      0.000220      0.000023
    10   Atom        0.117007      0.000165      0.000110
    11   Atom       -0.090482     -0.000290     -0.000011
    12   Atom       -0.909744      0.000325     -0.002496
    13   Atom        0.542923      0.002350     -0.000953
    14   Atom        0.070497     -0.022383      0.612475
    15   Atom       -0.483247      0.000380     -0.000547
    16   Atom        0.068928      0.020927     -0.611472
    17   Atom       -0.059129      0.186281      0.095054
    18   Atom       -0.058726     -0.186150     -0.094768
    19   Atom       -0.045568     -0.000039     -0.000338
    20   Atom        0.112388     -0.000040      0.000054
    21   Atom        0.142055     -0.000116      0.000048
    22   Atom       -0.213919     -0.000109     -0.000091
    23   Atom        0.018181      0.032680     -0.189866
    24   Atom        0.018091     -0.032518      0.190111
 --------------------------------------------------------


 ---------------------------------------------------------------------------------
              Nuclear Quadrupole in Principal Axis System
 ---------------------------------------------------------------------------------

       Atom             a.u.   MegaHertz   Gauss  10(-4) cm-1        Axes

              Baa    -0.6434   -24.816    -8.855    -8.278 -0.0004 -0.0001  1.0000
     1 N(14)  Bbb    -0.3019   -11.645    -4.155    -3.884  0.9875  0.1576  0.0004
              Bcc     0.9454    36.461    13.010    12.162 -0.1576  0.9875  0.0001
 
              Baa    -0.1982   -26.599    -9.491    -8.873 -0.0004 -0.0001  1.0000
     2 C(13)  Bbb     0.0746    10.009     3.571     3.339  0.9852  0.1717  0.0004
              Bcc     0.1236    16.591     5.920     5.534 -0.1717  0.9852  0.0000
 
              Baa    -0.0646    -8.672    -3.094    -2.893  0.8298 -0.5581  0.0003
     3 C(13)  Bbb     0.0059     0.793     0.283     0.265 -0.0005 -0.0002  1.0000
              Bcc     0.0587     7.879     2.811     2.628  0.5581  0.8298  0.0005
 
              Baa    -0.1846   -24.777    -8.841    -8.265  0.0004  0.0004  1.0000
     4 C(13)  Bbb    -0.1753   -23.526    -8.395    -7.847  0.8454  0.5341 -0.0006
              Bcc     0.3600    48.303    17.236    16.112 -0.5341  0.8454 -0.0001
 
              Baa    -1.3519    97.824    34.906    32.630  0.5563  0.8310  0.0003
     5 O(17)  Bbb     0.2591   -18.752    -6.691    -6.255  0.8310 -0.5563  0.0004
              Bcc     1.0928   -79.072   -28.215   -26.375 -0.0005  0.0000  1.0000
 
              Baa    -0.2049   -27.497    -9.812    -9.172 -0.0004 -0.0001  1.0000
     6 C(13)  Bbb     0.0497     6.674     2.381     2.226 -0.5006  0.8657 -0.0001
              Bcc     0.1552    20.824     7.430     6.946  0.8657  0.5006  0.0003
 
              Baa    -0.5689   -76.345   -27.242   -25.466 -0.0003  0.0000  1.0000
     7 C(13)  Bbb     0.1799    24.147     8.616     8.055  0.7239  0.6899  0.0003
              Bcc     0.3890    52.198    18.626    17.411 -0.6899  0.7239 -0.0002
 
              Baa    -1.0892    78.815    28.123    26.290 -0.0004 -0.0001  1.0000
     8 O(17)  Bbb    -0.5936    42.950    15.325    14.326  0.7924  0.6099  0.0003
              Bcc     1.6828  -121.764   -43.449   -40.616 -0.6099  0.7924 -0.0002
 
              Baa    -0.4342   -58.271   -20.793   -19.437 -0.0003 -0.0001  1.0000
     9 C(13)  Bbb     0.1399    18.769     6.697     6.261  0.7062  0.7080  0.0003
              Bcc     0.2944    39.502    14.095    13.177  0.7080 -0.7062  0.0002
 
              Baa    -0.3394   -45.543   -16.251   -15.192 -0.0003 -0.0001  1.0000
    10 C(13)  Bbb     0.0390     5.234     1.867     1.746  0.8502 -0.5265  0.0002
              Bcc     0.3004    40.310    14.383    13.446  0.5265  0.8502  0.0003
 
              Baa    -0.2091   -28.060   -10.013    -9.360  0.8884  0.4590  0.0006
    11 C(13)  Bbb     0.0128     1.713     0.611     0.571 -0.4590  0.8884 -0.0007
              Bcc     0.1963    26.347     9.401     8.789 -0.0009  0.0003  1.0000
 
              Baa    -1.6680   120.699    43.068    40.261  0.8192  0.5735  0.0004
    12 O(17)  Bbb     0.2683   -19.417    -6.928    -6.477 -0.5735  0.8192  0.0020
              Bcc     1.3997  -101.282   -36.140   -33.784  0.0008 -0.0018  1.0000
 
              Baa    -1.0792  -233.307   -83.250   -77.823  0.9385 -0.3451 -0.0016
    13 P(31)  Bbb     0.4824   104.281    37.210    34.784  0.0018  0.0001  1.0000
              Bcc     0.5968   129.026    46.040    43.038  0.3451  0.9386 -0.0007
 
              Baa    -0.7965    57.632    20.564    19.224  0.0549 -0.5430  0.8379
    14 O(17)  Bbb     0.2384   -17.249    -6.155    -5.754  0.9874 -0.0954 -0.1265
              Bcc     0.5581   -40.382   -14.409   -13.470  0.1486  0.8343  0.5309
 
              Baa    -0.8055    58.287    20.798    19.442  0.5564  0.8309  0.0002
    15 O(17)  Bbb     0.2397   -17.345    -6.189    -5.786  0.8309 -0.5564 -0.0019
              Bcc     0.5658   -40.942   -14.609   -13.657  0.0015 -0.0012  1.0000
 
              Baa    -0.7965    57.637    20.566    19.226 -0.0528  0.5411  0.8393
    16 O(17)  Bbb     0.2383   -17.244    -6.153    -5.752  0.9877 -0.0956  0.1238
              Bcc     0.5582   -40.393   -14.413   -13.474  0.1473  0.8355 -0.5294
 
              Baa    -0.2901  -154.797   -55.236   -51.635 -0.5340 -0.2660  0.8026
    17 H(1)   Bbb     0.1413    75.400    26.904    25.151  0.7617 -0.5633  0.3201
              Bcc     0.1488    79.398    28.331    26.484  0.3670  0.7822  0.5034
 
              Baa    -0.2901  -154.794   -55.234   -51.634  0.5329  0.2648  0.8037
    18 H(1)   Bbb     0.1413    75.398    26.904    25.150  0.7620 -0.5632 -0.3197
              Bcc     0.1488    79.395    28.330    26.483  0.3680  0.7827 -0.5019
 
              Baa    -0.2937  -156.700   -55.914   -52.269  0.1043  0.9945  0.0008
    19 H(1)   Bbb     0.1456    77.706    27.728    25.920  0.9945 -0.1043  0.0016
              Bcc     0.1481    78.994    28.187    26.349 -0.0017 -0.0006  1.0000
 
              Baa    -0.3266  -174.243   -62.174   -58.121 -0.2515  0.9679 -0.0001
    20 H(1)   Bbb     0.1352    72.115    25.732    24.055  0.9679  0.2515  0.0004
              Bcc     0.1914   102.129    36.442    34.066 -0.0005  0.0000  1.0000
 
              Baa    -0.2653  -141.543   -50.506   -47.214  0.9203 -0.3913  0.0003
    21 H(1)   Bbb     0.1292    68.942    24.600    22.996  0.3913  0.9203  0.0001
              Bcc     0.1361    72.602    25.906    24.217 -0.0003  0.0000  1.0000
 
              Baa    -0.2915  -155.538   -55.500   -51.882  0.7618  0.6479  0.0003
    22 H(1)   Bbb     0.1419    75.737    27.025    25.263 -0.6479  0.7618 -0.0002
              Bcc     0.1496    79.802    28.475    26.619 -0.0003 -0.0001  1.0000
 
              Baa    -0.2656  -141.715   -50.567   -47.271 -0.0933  0.5993  0.7950
    23 H(1)   Bbb     0.1276    68.093    24.297    22.713  0.6888  0.6155 -0.3831
              Bcc     0.1380    73.622    26.270    24.558  0.7189 -0.5119  0.4703
 
              Baa    -0.2657  -141.753   -50.581   -47.284  0.0928 -0.6006  0.7941
    24 H(1)   Bbb     0.1276    68.095    24.298    22.714  0.6899  0.6139  0.3836
              Bcc     0.1381    73.658    26.283    24.570  0.7179 -0.5123 -0.4714
 

 ---------------------------------------------------------------------------------

 No NMR shielding tensors so no spin-rotation constants.
 Leave Link  601 at Mon Apr  3 02:00:23 2023, MaxMem= 8589934592 cpu:      62.8
 Merz-Kollman atomic radii used.
 Atom Element Radius
    1     7    1.50
    2     6    1.50
    3     6    1.50
    4     6    1.50
    5     8    1.40
    6     6    1.50
    7     6    1.50
    8     8    1.40
    9     6    1.50
   10     6    1.50
   11     6    1.50
   12     8    1.40
   13    15    1.80
   14     8    1.40
   15     8    1.40
   16     8    1.40
   17     1    1.20
   18     1    1.20
   19     1    1.20
   20     1    1.20
   21     1    1.20
   22     1    1.20
   23     1    1.20
   24     1    1.20
 Generate VDW surfaces: Layer= 4 Dens= 6 Start= 1.400 Inc= 0.200

 **********************************************************************

          Electrostatic Properties Using The MP2 Density

 **********************************************************************

       Atomic Center    1 is at   1.924440 -2.062799 -0.000411
       Atomic Center    2 is at   3.004030 -1.267007  0.000056
       Atomic Center    3 is at   4.367254 -1.911621  0.000536
       Atomic Center    4 is at   2.877390  0.123907  0.000123
       Atomic Center    5 is at   4.005642  0.886628  0.000641
       Atomic Center    6 is at   1.586607  0.715656 -0.000318
       Atomic Center    7 is at   1.462791  2.156523 -0.000286
       Atomic Center    8 is at   2.436503  2.943596  0.000050
       Atomic Center    9 is at   0.450346 -0.141252 -0.000744
       Atomic Center   10 is at   0.698072 -1.515358 -0.000783
       Atomic Center   11 is at  -0.966598  0.379421 -0.000978
       Atomic Center   12 is at  -1.890603 -0.655767 -0.002159
       Atomic Center   13 is at  -3.576167 -0.078510  0.000413
       Atomic Center   14 is at  -3.635268  0.753431 -1.292100
       Atomic Center   15 is at  -4.359359 -1.387219 -0.000008
       Atomic Center   16 is at  -3.632006  0.750595  1.294982
       Atomic Center   17 is at   4.953711 -1.616799 -0.877503
       Atomic Center   18 is at   4.952512 -1.618094  0.879818
       Atomic Center   19 is at   4.242058 -2.995605 -0.000302
       Atomic Center   20 is at   3.690644  1.826522  0.000495
       Atomic Center   21 is at   0.446183  2.569626 -0.000627
       Atomic Center   22 is at  -0.155036 -2.182037 -0.001132
       Atomic Center   23 is at  -1.119014  1.030183  0.881251
       Atomic Center   24 is at  -1.118244  1.031709 -0.882207
      ESP Fit Center   25 is at   1.924440 -2.062799  2.099589
      ESP Fit Center   26 is at   2.334129 -2.062799  2.059238
      ESP Fit Center   27 is at   2.129285 -1.707997  2.059238
      ESP Fit Center   28 is at   1.719595 -1.707997  2.059238
      ESP Fit Center   29 is at   1.514750 -2.062799  2.059238
      ESP Fit Center   30 is at   1.719595 -2.417600  2.059238
      ESP Fit Center   31 is at   2.129285 -2.417600  2.059238
      ESP Fit Center   32 is at   2.728075 -2.062799  1.939736
      ESP Fit Center   33 is at   1.924440 -1.259163  1.939736
      ESP Fit Center   34 is at   1.522622 -1.366830  1.939736
      ESP Fit Center   35 is at   1.228471 -2.464616  1.939736
      ESP Fit Center   36 is at   1.522622 -2.758767  1.939736
[...]
 7085 Fit      -0.254866
 7086 Fit      -0.253308
 7087 Fit      -0.250441
 7088 Fit      -0.247379
 7089 Fit      -0.244710
 7090 Fit      -0.242923
 7091 Fit      -0.242005
 7092 Fit      -0.241849
 7093 Fit      -0.242387
 7094 Fit      -0.243602
 7095 Fit      -0.245491
 7096 Fit      -0.248009
 7097 Fit      -0.251020
 7098 Fit      -0.254233
 7099 Fit      -0.257163
 7100 Fit      -0.259211
 7101 Fit      -0.259901
 7102 Fit      -0.259113
 7103 Fit      -0.257059
 7104 Fit      -0.254096
 7105 Fit      -0.250679
 7106 Fit      -0.247560
 7107 Fit      -0.244801
 7108 Fit      -0.242884
 7109 Fit      -0.241745
 7110 Fit      -0.241219
 7111 Fit      -0.241170
 7112 Fit      -0.241534
 7113 Fit      -0.242304
 7114 Fit      -0.243507
 7115 Fit      -0.245174
 7116 Fit      -0.247328
 7117 Fit      -0.249968
 7118 Fit      -0.253042
 7119 Fit      -0.256414
 7120 Fit      -0.259815
 7121 Fit      -0.262836
 7122 Fit      -0.264998
 7123 Fit      -0.265928
 7124 Fit      -0.265530
 7125 Fit      -0.263975
 7126 Fit      -0.261524
 7127 Fit      -0.258384
 7128 Fit      -0.254763
 7129 Fit      -0.251006
 7130 Fit      -0.247554
 7131 Fit      -0.244578
 7132 Fit      -0.242601
 7133 Fit      -0.241497
 7134 Fit      -0.241015
 7135 Fit      -0.240939
 7136 Fit      -0.241141
 7137 Fit      -0.241581
 7138 Fit      -0.242268
 7139 Fit      -0.243238
 7140 Fit      -0.244537
 7141 Fit      -0.246212
 7142 Fit      -0.248304
 7143 Fit      -0.250849
 7144 Fit      -0.253866
 7145 Fit      -0.257331
 7146 Fit      -0.261144
 7147 Fit      -0.265073
 7148 Fit      -0.268732
 7149 Fit      -0.271621
 7150 Fit      -0.264015
 7151 Fit      -0.260065
 7152 Fit      -0.255726
 7153 Fit      -0.251395
 7154 Fit      -0.240799
 7155 Fit      -0.240675
 7156 Fit      -0.240917
 7157 Fit      -0.241330
 7158 Fit      -0.241842
 7159 Fit      -0.242451
 7160 Fit      -0.243194
 7161 Fit      -0.244122
 7162 Fit      -0.245292
 7163 Fit      -0.246756
 7164 Fit      -0.248573
 7165 Fit      -0.250799
 7166 Fit      -0.253496
 7167 Fit      -0.256722
 7168 Fit      -0.260515
 7169 Fit      -0.264848
 7170 Fit      -0.269576
 7171 Fit      -0.256849
 7172 Fit      -0.240650
 7173 Fit      -0.241592
 7174 Fit      -0.242462
 7175 Fit      -0.243261
 7176 Fit      -0.244033
 7177 Fit      -0.244840
 7178 Fit      -0.245744
 7179 Fit      -0.246808
 7180 Fit      -0.248088
 7181 Fit      -0.249646
 7182 Fit      -0.251544
 7183 Fit      -0.253858
 7184 Fit      -0.256675
 7185 Fit      -0.260095
 7186 Fit      -0.264215
 7187 Fit      -0.269094
 7188 Fit      -0.241786
 7189 Fit      -0.243338
 7190 Fit      -0.244599
 7191 Fit      -0.245651
 7192 Fit      -0.246583
 7193 Fit      -0.247481
 7194 Fit      -0.248420
 7195 Fit      -0.249467
 7196 Fit      -0.250687
 7197 Fit      -0.252142
 7198 Fit      -0.253904
 7199 Fit      -0.256059
 7200 Fit      -0.258717
 7201 Fit      -0.262014
 7202 Fit      -0.266116
 7203 Fit      -0.244925
 7204 Fit      -0.246824
 7205 Fit      -0.248296
 7206 Fit      -0.249491
 7207 Fit      -0.250533
 7208 Fit      -0.251526
 7209 Fit      -0.252556
 7210 Fit      -0.253700
 7211 Fit      -0.255031
 7212 Fit      -0.256631
 7213 Fit      -0.258600
 7214 Fit      -0.261069
 7215 Fit      -0.264218
 7216 Fit      -0.247081
 7217 Fit      -0.249754
 7218 Fit      -0.251744
 7219 Fit      -0.253272
 7220 Fit      -0.254511
 7221 Fit      -0.255594
 7222 Fit      -0.256629
 7223 Fit      -0.257705
 7224 Fit      -0.258904
 7225 Fit      -0.260315
 7226 Fit      -0.262043
 7227 Fit      -0.264231
 7228 Fit      -0.250883
 7229 Fit      -0.254266
 7230 Fit      -0.256736
 7231 Fit      -0.258579
 7232 Fit      -0.260012
 7233 Fit      -0.261201
 7234 Fit      -0.262272
 7235 Fit      -0.263329
 7236 Fit      -0.264466
 7237 Fit      -0.265784
 7238 Fit      -0.264033
 7239 Fit      -0.266071
 7240 Fit      -0.267620
 7241 Fit      -0.268863
 7242 Fit      -0.117033
 7243 Fit      -0.119253
 7244 Fit      -0.122756
 7245 Fit      -0.127858
 7246 Fit      -0.135064
 7247 Fit      -0.115250
 7248 Fit      -0.117279
 7249 Fit      -0.120447
 7250 Fit      -0.124993
 7251 Fit      -0.131275
 7252 Fit      -0.114031
 7253 Fit      -0.114203
 7254 Fit      -0.113996
 7255 Fit      -0.115937
 7256 Fit      -0.118990
 7257 Fit      -0.123351
 7258 Fit      -0.129303
 7259 Fit      -0.137245
 7260 Fit      -0.113665
 7261 Fit      -0.112941
 7262 Fit      -0.113029
 7263 Fit      -0.113324
 7264 Fit      -0.115213
 7265 Fit      -0.118222
 7266 Fit      -0.122512
 7267 Fit      -0.128287
 7268 Fit      -0.135783
 7269 Fit      -0.115038
 7270 Fit      -0.113348
 7271 Fit      -0.112466
 7272 Fit      -0.112438
 7273 Fit      -0.113273
 7274 Fit      -0.115075
 7275 Fit      -0.117976
 7276 Fit      -0.122081
 7277 Fit      -0.127488
 7278 Fit      -0.134235
 7279 Fit      -0.118182
 7280 Fit      -0.115512
 7281 Fit      -0.113648
 7282 Fit      -0.112623
 7283 Fit      -0.112480
 7284 Fit      -0.113876
 7285 Fit      -0.115719
 7286 Fit      -0.118768
 7287 Fit      -0.123066
 7288 Fit      -0.128573
 7289 Fit      -0.135054
 7290 Fit      -0.141901
 7291 Fit      -0.120612
 7292 Fit      -0.117312
 7293 Fit      -0.114945
 7294 Fit      -0.113550
 7295 Fit      -0.113175
 7296 Fit      -0.115166
 7297 Fit      -0.117031
 7298 Fit      -0.120198
 7299 Fit      -0.124592
 7300 Fit      -0.129958
 7301 Fit      -0.135747
 7302 Fit      -0.141140
 7303 Fit      -0.145445
 7304 Fit      -0.148661
 7305 Fit      -0.128944
 7306 Fit      -0.124029
 7307 Fit      -0.120045
 7308 Fit      -0.117095
 7309 Fit      -0.115254
 7310 Fit      -0.114590
 7311 Fit      -0.117174
 7312 Fit      -0.119166
 7313 Fit      -0.122667
 7314 Fit      -0.127349
 7315 Fit      -0.132565
 7316 Fit      -0.137469
 7317 Fit      -0.141463
 7318 Fit      -0.144405
 7319 Fit      -0.146131
 7320 Fit      -0.146187
 7321 Fit      -0.144192
 7322 Fit      -0.140243
 7323 Fit      -0.135048
 7324 Fit      -0.129572
 7325 Fit      -0.124609
 7326 Fit      -0.120651
 7327 Fit      -0.117986
 7328 Fit      -0.116791
 7329 Fit      -0.119935
 7330 Fit      -0.122333
 7331 Fit      -0.126652
 7332 Fit      -0.131723
 7333 Fit      -0.136135
 7334 Fit      -0.138868
 7335 Fit      -0.139179
 7336 Fit      -0.136677
 7337 Fit      -0.132015
 7338 Fit      -0.126749
 7339 Fit      -0.122408
 7340 Fit      -0.119974
 7341 Fit      -0.123481
 7342 Fit      -0.126845
 7343 Fit      -0.131615
 7344 Fit      -0.133072
 7345 Fit      -0.129594
 7346 Fit      -0.124794
 7347 Fit      -0.127850
 7348 Fit      -0.127838
 7349 Fit      -0.123473
 7350 Fit      -0.126836
 7351 Fit      -0.131604
 7352 Fit      -0.133058
 7353 Fit      -0.129580
 7354 Fit      -0.124782
 7355 Fit      -0.119929
 7356 Fit      -0.122328
 7357 Fit      -0.126646
 7358 Fit      -0.131715
 7359 Fit      -0.136124
 7360 Fit      -0.138854
 7361 Fit      -0.139163
 7362 Fit      -0.136659
 7363 Fit      -0.131997
 7364 Fit      -0.126735
 7365 Fit      -0.122396
 7366 Fit      -0.119965
 7367 Fit      -0.117171
 7368 Fit      -0.119164
 7369 Fit      -0.122665
 7370 Fit      -0.127346
 7371 Fit      -0.132560
 7372 Fit      -0.137461
 7373 Fit      -0.141452
 7374 Fit      -0.144392
 7375 Fit      -0.146115
 7376 Fit      -0.146168
 7377 Fit      -0.144171
 7378 Fit      -0.140222
 7379 Fit      -0.135029
 7380 Fit      -0.129555
 7381 Fit      -0.124594
 7382 Fit      -0.120639
 7383 Fit      -0.117978
 7384 Fit      -0.116786
 7385 Fit      -0.115165
 7386 Fit      -0.117032
 7387 Fit      -0.120199
 7388 Fit      -0.124594
 7389 Fit      -0.129958
 7390 Fit      -0.135744
 7391 Fit      -0.141133
 7392 Fit      -0.145435
 7393 Fit      -0.148649
 7394 Fit      -0.128928
 7395 Fit      -0.124015
 7396 Fit      -0.120034
 7397 Fit      -0.117087
 7398 Fit      -0.115248
 7399 Fit      -0.114587
 7400 Fit      -0.113878
 7401 Fit      -0.115723
 7402 Fit      -0.118773
 7403 Fit      -0.123071
 7404 Fit      -0.128577
 7405 Fit      -0.135056
 7406 Fit      -0.141899
 7407 Fit      -0.120601
 7408 Fit      -0.117304
 7409 Fit      -0.114940
 7410 Fit      -0.113547
 7411 Fit      -0.113175
 7412 Fit      -0.113278
 7413 Fit      -0.115082
 7414 Fit      -0.117985
 7415 Fit      -0.122090
 7416 Fit      -0.127497
 7417 Fit      -0.134243
 7418 Fit      -0.118175
 7419 Fit      -0.115507
 7420 Fit      -0.113645
 7421 Fit      -0.112623
 7422 Fit      -0.112482
 7423 Fit      -0.113331
 7424 Fit      -0.115222
 7425 Fit      -0.118233
 7426 Fit      -0.122525
 7427 Fit      -0.128301
 7428 Fit      -0.135798
 7429 Fit      -0.115036
 7430 Fit      -0.113349
 7431 Fit      -0.112469
 7432 Fit      -0.112443
 7433 Fit      -0.114006
 7434 Fit      -0.115949
 7435 Fit      -0.119003
 7436 Fit      -0.123367
 7437 Fit      -0.129321
 7438 Fit      -0.137264
 7439 Fit      -0.113668
 7440 Fit      -0.112946
 7441 Fit      -0.113037
 7442 Fit      -0.115262
 7443 Fit      -0.117292
 7444 Fit      -0.120463
 7445 Fit      -0.125011
 7446 Fit      -0.131296
 7447 Fit      -0.114039
 7448 Fit      -0.114213
 7449 Fit      -0.119268
 7450 Fit      -0.122773
 7451 Fit      -0.127878
 7452 Fit      -0.135088
 7453 Fit      -0.145077
 7454 Fit      -0.137406
 7455 Fit      -0.131687
 7456 Fit      -0.128077
 7457 Fit      -0.149790
 7458 Fit      -0.140802
 7459 Fit      -0.133701
 7460 Fit      -0.128506
 7461 Fit      -0.125099
 7462 Fit      -0.123306
 7463 Fit      -0.148070
 7464 Fit      -0.138968
 7465 Fit      -0.131908
 7466 Fit      -0.126687
 7467 Fit      -0.123104
 7468 Fit      -0.120975
 7469 Fit      -0.120131
 7470 Fit      -0.157058
 7471 Fit      -0.145963
 7472 Fit      -0.137198
 7473 Fit      -0.130408
 7474 Fit      -0.125309
 7475 Fit      -0.121678
 7476 Fit      -0.119334
 7477 Fit      -0.118132
 7478 Fit      -0.117943
 7479 Fit      -0.150421
 7480 Fit      -0.140351
 7481 Fit      -0.132540
 7482 Fit      -0.126580
 7483 Fit      -0.122179
 7484 Fit      -0.119118
 7485 Fit      -0.117232
 7486 Fit      -0.116386
 7487 Fit      -0.116472
 7488 Fit      -0.155110
 7489 Fit      -0.143991
 7490 Fit      -0.135348
 7491 Fit      -0.128666
 7492 Fit      -0.123599
 7493 Fit      -0.119900
 7494 Fit      -0.117384
 7495 Fit      -0.115909
 7496 Fit      -0.115364
 7497 Fit      -0.115657
 7498 Fit      -0.151317
 7499 Fit      -0.141122
 7500 Fit      -0.133180
 7501 Fit      -0.127038
 7502 Fit      -0.122391
 7503 Fit      -0.119015
 7504 Fit      -0.116746
 7505 Fit      -0.115453
 7506 Fit      -0.115035
 7507 Fit      -0.115412
 7508 Fit      -0.155109
 7509 Fit      -0.143990
 7510 Fit      -0.135346
 7511 Fit      -0.128665
 7512 Fit      -0.123598
 7513 Fit      -0.119898
 7514 Fit      -0.117383
 7515 Fit      -0.115908
 7516 Fit      -0.115362
 7517 Fit      -0.115655
 7518 Fit      -0.150419
 7519 Fit      -0.140349
 7520 Fit      -0.132537
 7521 Fit      -0.126577
 7522 Fit      -0.122175
 7523 Fit      -0.119115
 7524 Fit      -0.117228
 7525 Fit      -0.116382
 7526 Fit      -0.116468
 7527 Fit      -0.157056
 7528 Fit      -0.145960
 7529 Fit      -0.137194
 7530 Fit      -0.130404
 7531 Fit      -0.125304
 7532 Fit      -0.121673
 7533 Fit      -0.119329
 7534 Fit      -0.118127
 7535 Fit      -0.117938
 7536 Fit      -0.148066
 7537 Fit      -0.138963
 7538 Fit      -0.131902
 7539 Fit      -0.126681
 7540 Fit      -0.123098
 7541 Fit      -0.120969
 7542 Fit      -0.120124
 7543 Fit      -0.149786
 7544 Fit      -0.140797
 7545 Fit      -0.133694
 7546 Fit      -0.128499
 7547 Fit      -0.125091
 7548 Fit      -0.123299
 7549 Fit      -0.145073
 7550 Fit      -0.137400
 7551 Fit      -0.131679
 7552 Fit      -0.128069
 7553 Fit      -0.139903
 7554 Fit      -0.136621
 7555 Fit      -0.138510
 7556 Fit      -0.134218
 7557 Fit      -0.135015
 7558 Fit      -0.132913
 7559 Fit      -0.131536
 7560 Fit      -0.133934
 7561 Fit      -0.131060
 7562 Fit      -0.133154
 7563 Fit      -0.131537
 7564 Fit      -0.133936
 7565 Fit      -0.132914
 7566 Fit      -0.134218
 7567 Fit      -0.135018
 7568 Fit      -0.136622
 7569 Fit      -0.138513
 7570 Fit      -0.139904
 7571 Fit      -0.172082
 7572 Fit      -0.181568
 7573 Fit      -0.167077
 7574 Fit      -0.174739
 7575 Fit      -0.185331
 7576 Fit      -0.164770
 7577 Fit      -0.171454
 7578 Fit      -0.181285
 7579 Fit      -0.194104
 7580 Fit      -0.162916
 7581 Fit      -0.168492
 7582 Fit      -0.177065
 7583 Fit      -0.188695
 7584 Fit      -0.203321
 7585 Fit      -0.160411
 7586 Fit      -0.163989
 7587 Fit      -0.170615
 7588 Fit      -0.180326
 7589 Fit      -0.193257
 7590 Fit      -0.209447
 7591 Fit      -0.159521
 7592 Fit      -0.161075
 7593 Fit      -0.165661
 7594 Fit      -0.173171
 7595 Fit      -0.183701
 7596 Fit      -0.197421
 7597 Fit      -0.214383
 7598 Fit      -0.160171
 7599 Fit      -0.163784
 7600 Fit      -0.170240
 7601 Fit      -0.179577
 7602 Fit      -0.191960
 7603 Fit      -0.207528
 7604 Fit      -0.226099
 7605 Fit      -0.159514
 7606 Fit      -0.161069
 7607 Fit      -0.165655
 7608 Fit      -0.173166
 7609 Fit      -0.183695
 7610 Fit      -0.197416
 7611 Fit      -0.214379
 7612 Fit      -0.160399
 7613 Fit      -0.163978
 7614 Fit      -0.170605
 7615 Fit      -0.180315
 7616 Fit      -0.193246
 7617 Fit      -0.209435
 7618 Fit      -0.162899
 7619 Fit      -0.168475
 7620 Fit      -0.177048
 7621 Fit      -0.188676
 7622 Fit      -0.203299
 7623 Fit      -0.164748
 7624 Fit      -0.171431
 7625 Fit      -0.181260
 7626 Fit      -0.194074
 7627 Fit      -0.167049
 7628 Fit      -0.174709
 7629 Fit      -0.185296
 7630 Fit      -0.172049
 7631 Fit      -0.181528
 7632 Fit      -0.235412
 7633 Fit      -0.220230
 7634 Fit      -0.207433
 7635 Fit      -0.242742
 7636 Fit      -0.225300
 7637 Fit      -0.210833
 7638 Fit      -0.200167
 7639 Fit      -0.193483
 7640 Fit      -0.237992
 7641 Fit      -0.220205
 7642 Fit      -0.206377
 7643 Fit      -0.196589
 7644 Fit      -0.190690
 7645 Fit      -0.252465
 7646 Fit      -0.231590
 7647 Fit      -0.214889
 7648 Fit      -0.202331
 7649 Fit      -0.193628
 7650 Fit      -0.188533
 7651 Fit      -0.186969
 7652 Fit      -0.239591
 7653 Fit      -0.220411
 7654 Fit      -0.205899
 7655 Fit      -0.195559
 7656 Fit      -0.188984
 7657 Fit      -0.185992
 7658 Fit      -0.247158
 7659 Fit      -0.226185
 7660 Fit      -0.210167
 7661 Fit      -0.198468
 7662 Fit      -0.190557
 7663 Fit      -0.186137
 7664 Fit      -0.185208
 7665 Fit      -0.239201
 7666 Fit      -0.220155
 7667 Fit      -0.205792
 7668 Fit      -0.195463
 7669 Fit      -0.188701
 7670 Fit      -0.185291
 7671 Fit      -0.247145
 7672 Fit      -0.226175
 7673 Fit      -0.210158
 7674 Fit      -0.198460
 7675 Fit      -0.190550
 7676 Fit      -0.186130
 7677 Fit      -0.185200
 7678 Fit      -0.239568
 7679 Fit      -0.220393
 7680 Fit      -0.205883
 7681 Fit      -0.195545
 7682 Fit      -0.188970
 7683 Fit      -0.185978
 7684 Fit      -0.252430
 7685 Fit      -0.231561
 7686 Fit      -0.214864
 7687 Fit      -0.202309
 7688 Fit      -0.193608
 7689 Fit      -0.188512
 7690 Fit      -0.186947
 7691 Fit      -0.237955
 7692 Fit      -0.220172
 7693 Fit      -0.206349
 7694 Fit      -0.196563
 7695 Fit      -0.190664
 7696 Fit      -0.242701
 7697 Fit      -0.225262
 7698 Fit      -0.210798
 7699 Fit      -0.200135
 7700 Fit      -0.193452
 7701 Fit      -0.235371
 7702 Fit      -0.220190
 7703 Fit      -0.207397
 7704 Fit      -0.223134
 7705 Fit      -0.210106
 7706 Fit      -0.212533
 7707 Fit      -0.227100
 7708 Fit      -0.240648
 7709 Fit      -0.235611
 7710 Fit      -0.220091
 7711 Fit      -0.200454
 7712 Fit      -0.199036
 7713 Fit      -0.203618
 7714 Fit      -0.214726
 7715 Fit      -0.231765
 7716 Fit      -0.250041
 7717 Fit      -0.233181
 7718 Fit      -0.218127
 7719 Fit      -0.207017
 7720 Fit      -0.193387
 7721 Fit      -0.190768
 7722 Fit      -0.191526
 7723 Fit      -0.196143
 7724 Fit      -0.205003
 7725 Fit      -0.218518
 7726 Fit      -0.236848
 7727 Fit      -0.247630
 7728 Fit      -0.231015
 7729 Fit      -0.217318
 7730 Fit      -0.206684
 7731 Fit      -0.198785
 7732 Fit      -0.184776
 7733 Fit      -0.183806
 7734 Fit      -0.185803
 7735 Fit      -0.190879
 7736 Fit      -0.199272
 7737 Fit      -0.211469
 7738 Fit      -0.228119
 7739 Fit      -0.187610
 7740 Fit      -0.196482
 7741 Fit      -0.208755
 7742 Fit      -0.225206
 7743 Fit      -0.194161
 7744 Fit      -0.206375
 7745 Fit      -0.222258
 7746 Fit      -0.212193
 7747 Fit      -0.230620
 7748 Fit      -0.219563
 7749 Fit      -0.240120
 7750 Fit      -0.234462
 7751 Fit      -0.243272
 7752 Fit      -0.243173
 7753 Fit      -0.234361
 7754 Fit      -0.219459
 7755 Fit      -0.240002
 7756 Fit      -0.212083
 7757 Fit      -0.230490
 7758 Fit      -0.194062
 7759 Fit      -0.206259
 7760 Fit      -0.222120
 7761 Fit      -0.187514
 7762 Fit      -0.196371
 7763 Fit      -0.208622
 7764 Fit      -0.225044
 7765 Fit      -0.184694
 7766 Fit      -0.183720
 7767 Fit      -0.185709
 7768 Fit      -0.190773
 7769 Fit      -0.199147
 7770 Fit      -0.211319
 7771 Fit      -0.227933
 7772 Fit      -0.193292
 7773 Fit      -0.190669
 7774 Fit      -0.191419
 7775 Fit      -0.196022
 7776 Fit      -0.204860
 7777 Fit      -0.218342
 7778 Fit      -0.236624
 7779 Fit      -0.247434
 7780 Fit      -0.230872
 7781 Fit      -0.217203
 7782 Fit      -0.206582
 7783 Fit      -0.198689
 7784 Fit      -0.200336
 7785 Fit      -0.198911
 7786 Fit      -0.203477
 7787 Fit      -0.214553
 7788 Fit      -0.231544
 7789 Fit      -0.249786
 7790 Fit      -0.232994
 7791 Fit      -0.217983
 7792 Fit      -0.206893
 7793 Fit      -0.209956
 7794 Fit      -0.212368
 7795 Fit      -0.226889
 7796 Fit      -0.240396
 7797 Fit      -0.235387
 7798 Fit      -0.219921
 7799 Fit      -0.222942
 -----------------------------------------------------------------
 Leave Link  602 at Mon Apr  3 02:00:24 2023, MaxMem= 8589934592 cpu:      39.6

 Test job not archived.
 1\1\GINC-CPU-2-1\SP\RMP2-FC\Aug-CC-pVTZ\C8H8N1O6P1(2-)\SHIJIZ\03-Apr-2
 023\0\\#MP2/aug-cc-pVTZ Geom=Check SCF=Tight Pop=MK IOp(6/33=2,6/42=6,
 6/43=20) Guess=Read Density=Current\\PLP esp\\-2,1\N,0,2.1241405639,-0
 .0516736488,1.996417376\C,0,1.3475057495,-0.0641369654,3.0897993277\C,
 0,2.0160400588,-0.0861325165,4.4412739468\C,0,-0.045412531,-0.05706669
 52,2.9877826794\O,0,-0.7881247204,-0.0703877031,4.1292281299\C,0,-0.65
 98143955,-0.0363261246,1.7077949839\C,0,-2.102627516,-0.0290671533,1.6
 094861808\O,0,-2.8724104584,-0.0399554695,2.5968645174\C,0,0.176928053
 4,-0.0233491748,0.556675918\C,0,1.5551755466,-0.0320725962,0.780044702
 \C,0,-0.368633518,-0.0013290311,-0.8507002881\O,0,0.6501028194,0.00875
 2628,-1.7927583619\P,0,0.0432209062,0.031934925,-3.46772584\O,0,-0.784
 3184953,1.3283488978,-3.4941534486\O,0,1.3379122411,0.0382344537,-4.27
 38539062\O,0,-0.7920488217,-1.2585186973,-3.5268680399\H,0,1.735208714
 1,0.7847674586,5.0449889204\H,0,1.7292666866,-0.9723577088,5.019363726
 9\H,0,3.0976432246,-0.0877318933,4.2969549824\H,0,-1.7334163129,-0.062
 2170012,3.8309308063\H,0,-2.5335803152,-0.0129425735,0.6004447619\H,0,
 2.2067096945,-0.0223903348,-0.0846313331\H,0,-1.0255978408,-0.87882543
 97,-1.0038224852\H,0,-1.0198693334,0.8844423641,-0.9785372568\\Version
 =EM64L-G09RevC.01\State=1-A\HF=-1152.3209243\MP2=-1155.4614766\RMSD=5.
 210e-09\Dipole=-0.3029665,-0.1374757,10.1336146\Quadrupole=27.6149291,
 36.4671362,-64.0820653,-0.0063902,3.0986932,1.3790397\PG=C01 [X(C8H8N1
 O6P1)]\\@


 THE WORLD OF CHEMICAL REACTIONS IS LIKE A STAGE,
 ON WHICH SCENE AFTER SCENE IS CEASELESSLY PLAYED.
 THE ACTORS ON IT ARE THE ELEMENTS.
   -- CLEMENS WINKLER   BER. 30,13(1897)
 (DISCOVERER OF GERMANIUM, FEB 6, 1886)
 Job cpu time:  4 days 20 hours 32 minutes  2.0 seconds.
 File lengths (MBytes):  RWF= 720422 Int=      0 D2E=      0 Chk=     58 Scr=      1
 Normal termination of Gaussian 09 at Mon Apr  3 02:00:35 2023.
